 Entering Gaussian System, Link 0=/opt/cluster/programs/g09/g09_d.01/g09//g09
 Input=/home/kaeser/nnprojects/hydra_challenge/b3lypd3/1191-95-3.com
 Output=/scratch/kaeser/1191-95-3/1191-95-3.out
 Initial command:
 /opt/cluster/programs/g09/g09_d.01/g09/l1.exe "/scratch/kaeser/1191-95-3/Gau-188655.inp" -scrdir="/scratch/kaeser/1191-95-3/"
 Entering Link 1 = /opt/cluster/programs/g09/g09_d.01/g09/l1.exe PID=    188663.
  
 Copyright (c) 1988,1990,1992,1993,1995,1998,2003,2009,2013,
            Gaussian, Inc.  All Rights Reserved.
  
 This is part of the Gaussian(R) 09 program.  It is based on
 the Gaussian(R) 03 system (copyright 2003, Gaussian, Inc.),
 the Gaussian(R) 98 system (copyright 1998, Gaussian, Inc.),
 the Gaussian(R) 94 system (copyright 1995, Gaussian, Inc.),
 the Gaussian 92(TM) system (copyright 1992, Gaussian, Inc.),
 the Gaussian 90(TM) system (copyright 1990, Gaussian, Inc.),
 the Gaussian 88(TM) system (copyright 1988, Gaussian, Inc.),
 the Gaussian 86(TM) system (copyright 1986, Carnegie Mellon
 University), and the Gaussian 82(TM) system (copyright 1983,
 Carnegie Mellon University). Gaussian is a federally registered
 trademark of Gaussian, Inc.
  
 This software contains proprietary and confidential information,
 including trade secrets, belonging to Gaussian, Inc.
  
 This software is provided under written license and may be
 used, copied, transmitted, or stored only in accord with that
 written license.
  
 The following legend is applicable only to US Government
 contracts under FAR:
  
                    RESTRICTED RIGHTS LEGEND
  
 Use, reproduction and disclosure by the US Government is
 subject to restrictions as set forth in subparagraphs (a)
 and (c) of the Commercial Computer Software - Restricted
 Rights clause in FAR 52.227-19.
  
 Gaussian, Inc.
 340 Quinnipiac St., Bldg. 40, Wallingford CT 06492
  
  
 ---------------------------------------------------------------
 Warning -- This program may not be used in any manner that
 competes with the business of Gaussian, Inc. or will provide
 assistance to any competitor of Gaussian, Inc.  The licensee
 of this program is prohibited from giving any competitor of
 Gaussian, Inc. access to this program.  By using this program,
 the user acknowledges that Gaussian, Inc. is engaged in the
 business of creating and licensing software in the field of
 computational chemistry and represents and warrants to the
 licensee that it is not a competitor of Gaussian, Inc. and that
 it will not use this program in any manner prohibited above.
 ---------------------------------------------------------------
  

 Cite this work as:
 Gaussian 09, Revision D.01,
 M. J. Frisch, G. W. Trucks, H. B. Schlegel, G. E. Scuseria, 
 M. A. Robb, J. R. Cheeseman, G. Scalmani, V. Barone, B. Mennucci, 
 G. A. Petersson, H. Nakatsuji, M. Caricato, X. Li, H. P. Hratchian, 
 A. F. Izmaylov, J. Bloino, G. Zheng, J. L. Sonnenberg, M. Hada, 
 M. Ehara, K. Toyota, R. Fukuda, J. Hasegawa, M. Ishida, T. Nakajima, 
 Y. Honda, O. Kitao, H. Nakai, T. Vreven, J. A. Montgomery, Jr., 
 J. E. Peralta, F. Ogliaro, M. Bearpark, J. J. Heyd, E. Brothers, 
 K. N. Kudin, V. N. Staroverov, T. Keith, R. Kobayashi, J. Normand, 
 K. Raghavachari, A. Rendell, J. C. Burant, S. S. Iyengar, J. Tomasi, 
 M. Cossi, N. Rega, J. M. Millam, M. Klene, J. E. Knox, J. B. Cross, 
 V. Bakken, C. Adamo, J. Jaramillo, R. Gomperts, R. E. Stratmann, 
 O. Yazyev, A. J. Austin, R. Cammi, C. Pomelli, J. W. Ochterski, 
 R. L. Martin, K. Morokuma, V. G. Zakrzewski, G. A. Voth, 
 P. Salvador, J. J. Dannenberg, S. Dapprich, A. D. Daniels, 
 O. Farkas, J. B. Foresman, J. V. Ortiz, J. Cioslowski, 
 and D. J. Fox, Gaussian, Inc., Wallingford CT, 2013.
 
 ******************************************
 Gaussian 09:  ES64L-G09RevD.01 24-Apr-2013
                30-Sep-2021 
 ******************************************
 %chk=1191-95-3.chk
 %mem=2GB
 %nprocshared=2
 Will use up to    2 processors via shared memory.
 ----------------------------------------------------------------------
 # opt freq b3lyp/aug-cc-pvtz EmpiricalDispersion=GD3 geom=connectivity
 ----------------------------------------------------------------------
 1/14=-1,18=20,19=15,26=3,38=1,57=2/1,3;
 2/9=110,12=2,17=6,18=5,40=1/2;
 3/5=16,6=1,7=10,11=2,16=1,25=1,30=1,71=1,74=-5,124=31/1,2,3;
 4//1;
 5/5=2,38=5/2;
 6/7=2,8=2,9=2,10=2,28=1/1;
 7//1,2,3,16;
 1/14=-1,18=20,19=15,26=3/3(2);
 2/9=110/2;
 99//99;
 2/9=110/2;
 3/5=16,6=1,7=10,11=2,16=1,25=1,30=1,71=1,74=-5,124=31/1,2,3;
 4/5=5,16=3,69=1/1;
 5/5=2,38=5/2;
 7//1,2,3,16;
 1/14=-1,18=20,19=15,26=3/3(-5);
 2/9=110/2;
 6/7=2,8=2,9=2,10=2,19=2,28=1/1;
 99/9=1/99;
 -------------------
 Title Card Required
 -------------------
 Symbolic Z-matrix:
 Charge =  0 Multiplicity = 1
 C                    -1.77549  -0.64373  -0.0483 
 C                    -1.78261   0.90486  -0.19217 
 C                    -0.28963   0.95914   0.23534 
 C                    -0.26105  -0.55629   0.09614 
 H                    -2.23702  -0.99358   0.87404 
 H                    -2.1395   -1.24594  -0.87645 
 H                    -2.47839   1.43366   0.44936 
 H                    -1.93066   1.22291  -1.2192 
 H                    -0.14619   1.25576   1.27359 
 H                     0.4283    1.49636  -0.37639 
 O                     0.6233   -1.36911   0.02671 
 O                     2.80939   0.48013  -0.02746 
 H                     2.24198  -0.29956   0.03566 
 H                     3.45258   0.25837  -0.70063 
 
 Add virtual bond connecting atoms H13        and O11        Dist= 3.67D+00.

 GradGradGradGradGradGradGradGradGradGradGradGradGradGradGradGradGradGrad
 Berny optimization.
 Initialization pass.
                           ----------------------------
                           !    Initial Parameters    !
                           ! (Angstroms and Degrees)  !
 --------------------------                            --------------------------
 ! Name  Definition              Value          Derivative Info.                !
 --------------------------------------------------------------------------------
 ! R1    R(1,2)                  1.5553         estimate D2E/DX2                !
 ! R2    R(1,4)                  1.5238         estimate D2E/DX2                !
 ! R3    R(1,5)                  1.0891         estimate D2E/DX2                !
 ! R4    R(1,6)                  1.0867         estimate D2E/DX2                !
 ! R5    R(2,3)                  1.5539         estimate D2E/DX2                !
 ! R6    R(2,7)                  1.0841         estimate D2E/DX2                !
 ! R7    R(2,8)                  1.0853         estimate D2E/DX2                !
 ! R8    R(3,4)                  1.5221         estimate D2E/DX2                !
 ! R9    R(3,9)                  1.0893         estimate D2E/DX2                !
 ! R10   R(3,10)                 1.0855         estimate D2E/DX2                !
 ! R11   R(4,11)                 1.2032         estimate D2E/DX2                !
 ! R12   R(11,13)                1.9401         estimate D2E/DX2                !
 ! R13   R(12,13)                0.9664         estimate D2E/DX2                !
 ! R14   R(12,14)                0.9571         estimate D2E/DX2                !
 ! A1    A(2,1,4)               87.4886         estimate D2E/DX2                !
 ! A2    A(2,1,5)              113.3435         estimate D2E/DX2                !
 ! A3    A(2,1,6)              118.6682         estimate D2E/DX2                !
 ! A4    A(4,1,5)              111.0587         estimate D2E/DX2                !
 ! A5    A(4,1,6)              115.908          estimate D2E/DX2                !
 ! A6    A(5,1,6)              108.9915         estimate D2E/DX2                !
 ! A7    A(1,2,3)               90.2828         estimate D2E/DX2                !
 ! A8    A(1,2,7)              115.714          estimate D2E/DX2                !
 ! A9    A(1,2,8)              112.3306         estimate D2E/DX2                !
 ! A10   A(3,2,7)              115.8991         estimate D2E/DX2                !
 ! A11   A(3,2,8)              112.4063         estimate D2E/DX2                !
 ! A12   A(7,2,8)              109.2379         estimate D2E/DX2                !
 ! A13   A(2,3,4)               87.5984         estimate D2E/DX2                !
 ! A14   A(2,3,9)              113.4691         estimate D2E/DX2                !
 ! A15   A(2,3,10)             119.8484         estimate D2E/DX2                !
 ! A16   A(4,3,9)              110.8436         estimate D2E/DX2                !
 ! A17   A(4,3,10)             115.3911         estimate D2E/DX2                !
 ! A18   A(9,3,10)             108.379          estimate D2E/DX2                !
 ! A19   A(1,4,3)               92.7021         estimate D2E/DX2                !
 ! A20   A(1,4,11)             133.3355         estimate D2E/DX2                !
 ! A21   A(3,4,11)             133.7647         estimate D2E/DX2                !
 ! A22   A(4,11,13)            103.9192         estimate D2E/DX2                !
 ! A23   A(13,12,14)           104.6905         estimate D2E/DX2                !
 ! A24   A(11,13,12)           159.1252         estimate D2E/DX2                !
 ! D1    D(4,1,2,3)            -10.3646         estimate D2E/DX2                !
 ! D2    D(4,1,2,7)           -129.5199         estimate D2E/DX2                !
 ! D3    D(4,1,2,8)            104.0985         estimate D2E/DX2                !
 ! D4    D(5,1,2,3)            101.5242         estimate D2E/DX2                !
 ! D5    D(5,1,2,7)            -17.6311         estimate D2E/DX2                !
 ! D6    D(5,1,2,8)           -144.0128         estimate D2E/DX2                !
 ! D7    D(6,1,2,3)           -128.6894         estimate D2E/DX2                !
 ! D8    D(6,1,2,7)            112.1553         estimate D2E/DX2                !
 ! D9    D(6,1,2,8)            -14.2264         estimate D2E/DX2                !
 ! D10   D(2,1,4,3)             10.5957         estimate D2E/DX2                !
 ! D11   D(2,1,4,11)          -164.6621         estimate D2E/DX2                !
 ! D12   D(5,1,4,3)           -103.4912         estimate D2E/DX2                !
 ! D13   D(5,1,4,11)            81.2511         estimate D2E/DX2                !
 ! D14   D(6,1,4,3)            131.4293         estimate D2E/DX2                !
 ! D15   D(6,1,4,11)           -43.8284         estimate D2E/DX2                !
 ! D16   D(1,2,3,4)             10.3757         estimate D2E/DX2                !
 ! D17   D(1,2,3,9)           -101.3424         estimate D2E/DX2                !
 ! D18   D(1,2,3,10)           128.4582         estimate D2E/DX2                !
 ! D19   D(7,2,3,4)            129.37           estimate D2E/DX2                !
 ! D20   D(7,2,3,9)             17.652          estimate D2E/DX2                !
 ! D21   D(7,2,3,10)          -112.5474         estimate D2E/DX2                !
 ! D22   D(8,2,3,4)           -104.0188         estimate D2E/DX2                !
 ! D23   D(8,2,3,9)            144.2631         estimate D2E/DX2                !
 ! D24   D(8,2,3,10)            14.0637         estimate D2E/DX2                !
 ! D25   D(2,3,4,1)            -10.6041         estimate D2E/DX2                !
 ! D26   D(2,3,4,11)           164.6197         estimate D2E/DX2                !
 ! D27   D(9,3,4,1)            103.6353         estimate D2E/DX2                !
 ! D28   D(9,3,4,11)           -81.1409         estimate D2E/DX2                !
 ! D29   D(10,3,4,1)          -132.7111         estimate D2E/DX2                !
 ! D30   D(10,3,4,11)           42.5127         estimate D2E/DX2                !
 ! D31   D(1,4,11,13)          170.4284         estimate D2E/DX2                !
 ! D32   D(3,4,11,13)           -3.0055         estimate D2E/DX2                !
 ! D33   D(4,11,13,12)         -14.7441         estimate D2E/DX2                !
 ! D34   D(14,12,13,11)       -124.0017         estimate D2E/DX2                !
 --------------------------------------------------------------------------------
 Trust Radius=3.00D-01 FncErr=1.00D-07 GrdErr=1.00D-06
 Number of steps in this run=     82 maximum allowed number of steps=    100.
 GradGradGradGradGradGradGradGradGradGradGradGradGradGradGradGradGradGrad

                          Input orientation:                          
 ---------------------------------------------------------------------
 Center     Atomic      Atomic             Coordinates (Angstroms)
 Number     Number       Type             X           Y           Z
 ---------------------------------------------------------------------
      1          6           0       -1.775488   -0.643734   -0.048301
      2          6           0       -1.782609    0.904861   -0.192166
      3          6           0       -0.289628    0.959144    0.235342
      4          6           0       -0.261053   -0.556292    0.096136
      5          1           0       -2.237016   -0.993577    0.874041
      6          1           0       -2.139499   -1.245941   -0.876453
      7          1           0       -2.478391    1.433663    0.449359
      8          1           0       -1.930660    1.222909   -1.219204
      9          1           0       -0.146192    1.255759    1.273588
     10          1           0        0.428303    1.496357   -0.376386
     11          8           0        0.623302   -1.369108    0.026705
     12          8           0        2.809394    0.480126   -0.027461
     13          1           0        2.241977   -0.299561    0.035664
     14          1           0        3.452583    0.258372   -0.700630
 ---------------------------------------------------------------------
                    Distance matrix (angstroms):
                    1          2          3          4          5
     1  C    0.000000
     2  C    1.555279   0.000000
     3  C    2.203963   1.553931   0.000000
     4  C    1.523818   2.129136   1.522084   0.000000
     5  H    1.089088   2.224264   2.830791   2.168129   0.000000
     6  H    1.086735   2.285075   3.085532   2.224883   1.771278
     7  H    2.248848   1.084112   2.249812   3.000213   2.475906
     8  H    2.208947   1.085302   2.208679   2.771870   3.064040
     9  H    2.830207   2.224730   1.089270   2.164051   3.096885
    10  H    3.089389   2.296070   1.085465   2.216271   3.855809
    11  O    2.507187   3.317717   2.509527   1.203152   3.006729
    12  O    4.720661   4.614544   3.146818   3.243005   5.333925
    13  H    4.033055   4.207117   2.834296   2.516888   4.609329
    14  H    5.345283   5.299407   3.920621   3.884534   6.034774
                    6          7          8          9         10
     6  H    0.000000
     7  H    3.008804   0.000000
     8  H    2.501262   1.768765   0.000000
     9  H    3.854147   2.479951   3.065847   0.000000
    10  H    3.789970   3.022359   2.519885   1.763617   0.000000
    11  O    2.909284   4.201745   3.846240   3.006121   2.900241
    12  O    5.309580   5.394188   4.943692   3.321118   2.612292
    13  H    4.574377   5.045501   4.615572   3.107222   2.585444
    14  H    5.793553   6.154692   5.493501   4.224157   3.283902
                   11         12         13         14
    11  O    0.000000
    12  O    2.863843   0.000000
    13  H    1.940134   0.966364   0.000000
    14  H    3.344030   0.957091   1.522821   0.000000
 Stoichiometry    C4H8O2
 Framework group  C1[X(C4H8O2)]
 Deg. of freedom    36
 Full point group                 C1      NOp   1
 Largest Abelian subgroup         C1      NOp   1
 Largest concise Abelian subgroup C1      NOp   1
                         Standard orientation:                         
 ---------------------------------------------------------------------
 Center     Atomic      Atomic             Coordinates (Angstroms)
 Number     Number       Type             X           Y           Z
 ---------------------------------------------------------------------
      1          6           0       -1.775488    0.643734    0.048301
      2          6           0       -1.782609   -0.904861    0.192166
      3          6           0       -0.289628   -0.959144   -0.235342
      4          6           0       -0.261053    0.556292   -0.096136
      5          1           0       -2.237016    0.993577   -0.874041
      6          1           0       -2.139499    1.245941    0.876453
      7          1           0       -2.478391   -1.433663   -0.449359
      8          1           0       -1.930660   -1.222909    1.219204
      9          1           0       -0.146192   -1.255759   -1.273588
     10          1           0        0.428303   -1.496357    0.376386
     11          8           0        0.623302    1.369108   -0.026705
     12          8           0        2.809394   -0.480126    0.027461
     13          1           0        2.241977    0.299561   -0.035664
     14          1           0        3.452583   -0.258372    0.700630
 ---------------------------------------------------------------------
 Rotational constants (GHZ):      6.3150094      1.9910046      1.5777949
 Standard basis: Aug-CC-pVTZ (5D, 7F)
 There are   530 symmetry adapted cartesian basis functions of A   symmetry.
 There are   460 symmetry adapted basis functions of A   symmetry.
   460 basis functions,   648 primitive gaussians,   530 cartesian basis functions
    24 alpha electrons       24 beta electrons
       nuclear repulsion energy       233.7150127205 Hartrees.
 NAtoms=   14 NActive=   14 NUniq=   14 SFac= 1.00D+00 NAtFMM=   60 NAOKFM=F Big=F
 Integral buffers will be    131072 words long.
 Raffenetti 2 integral format.
 Two-electron integral symmetry is turned on.
 Nuclear repulsion after empirical dispersion term =      233.7065478433 Hartrees.
 One-electron integrals computed using PRISM.
 NBasis=   460 RedAO= T EigKep=  3.51D-06  NBF=   460
 NBsUse=   460 1.00D-06 EigRej= -1.00D+00 NBFU=   460
 ExpMin= 2.53D-02 ExpMax= 1.53D+04 ExpMxC= 5.22D+02 IAcc=3 IRadAn=         5 AccDes= 0.00D+00
 Harris functional with IExCor=  402 and IRadAn=       5 diagonalized for initial guess.
 HarFok:  IExCor=  402 AccDes= 0.00D+00 IRadAn=         5 IDoV= 1 UseB2=F ITyADJ=14
 ICtDFT=  3500011 ScaDFX=  1.000000  1.000000  1.000000  1.000000
 FoFCou: FMM=F IPFlag=           0 FMFlag=      100000 FMFlg1=           0
         NFxFlg=           0 DoJE=T BraDBF=F KetDBF=T FulRan=T
         wScrn=  0.000000 ICntrl=     500 IOpCl=  0 I1Cent=   200000004 NGrid=           0
         NMat0=    1 NMatS0=      1 NMatT0=    0 NMatD0=    1 NMtDS0=    0 NMtDT0=    0
 Petite list used in FoFCou.
 Requested convergence on RMS density matrix=1.00D-08 within 128 cycles.
 Requested convergence on MAX density matrix=1.00D-06.
 Requested convergence on             energy=1.00D-06.
 No special actions if energy rises.
 SCF Done:  E(RB3LYP) =  -307.800854411     A.U. after   11 cycles
            NFock= 11  Conv=0.52D-08     -V/T= 2.0060

 **********************************************************************

            Population analysis using the SCF density.

 **********************************************************************

 Orbital symmetries:
       Occupied  (A) (A) (A) (A) (A) (A) (A) (A) (A) (A) (A) (A)
                 (A) (A) (A) (A) (A) (A) (A) (A) (A) (A) (A) (A)
       Virtual   (A) (A) (A) (A) (A) (A) (A) (A) (A) (A) (A) (A)
                 (A) (A) (A) (A) (A) (A) (A) (A) (A) (A) (A) (A)
                 (A) (A) (A) (A) (A) (A) (A) (A) (A) (A) (A) (A)
                 (A) (A) (A) (A) (A) (A) (A) (A) (A) (A) (A) (A)
                 (A) (A) (A) (A) (A) (A) (A) (A) (A) (A) (A) (A)
                 (A) (A) (A) (A) (A) (A) (A) (A) (A) (A) (A) (A)
                 (A) (A) (A) (A) (A) (A) (A) (A) (A) (A) (A) (A)
                 (A) (A) (A) (A) (A) (A) (A) (A) (A) (A) (A) (A)
                 (A) (A) (A) (A) (A) (A) (A) (A) (A) (A) (A) (A)
                 (A) (A) (A) (A) (A) (A) (A) (A) (A) (A) (A) (A)
                 (A) (A) (A) (A) (A) (A) (A) (A) (A) (A) (A) (A)
                 (A) (A) (A) (A) (A) (A) (A) (A) (A) (A) (A) (A)
                 (A) (A) (A) (A) (A) (A) (A) (A) (A) (A) (A) (A)
                 (A) (A) (A) (A) (A) (A) (A) (A) (A) (A) (A) (A)
                 (A) (A) (A) (A) (A) (A) (A) (A) (A) (A) (A) (A)
                 (A) (A) (A) (A) (A) (A) (A) (A) (A) (A) (A) (A)
                 (A) (A) (A) (A) (A) (A) (A) (A) (A) (A) (A) (A)
                 (A) (A) (A) (A) (A) (A) (A) (A) (A) (A) (A) (A)
                 (A) (A) (A) (A) (A) (A) (A) (A) (A) (A) (A) (A)
                 (A) (A) (A) (A) (A) (A) (A) (A) (A) (A) (A) (A)
                 (A) (A) (A) (A) (A) (A) (A) (A) (A) (A) (A) (A)
                 (A) (A) (A) (A) (A) (A) (A) (A) (A) (A) (A) (A)
                 (A) (A) (A) (A) (A) (A) (A) (A) (A) (A) (A) (A)
                 (A) (A) (A) (A) (A) (A) (A) (A) (A) (A) (A) (A)
                 (A) (A) (A) (A) (A) (A) (A) (A) (A) (A) (A) (A)
                 (A) (A) (A) (A) (A) (A) (A) (A) (A) (A) (A) (A)
                 (A) (A) (A) (A) (A) (A) (A) (A) (A) (A) (A) (A)
                 (A) (A) (A) (A) (A) (A) (A) (A) (A) (A) (A) (A)
                 (A) (A) (A) (A) (A) (A) (A) (A) (A) (A) (A) (A)
                 (A) (A) (A) (A) (A) (A) (A) (A) (A) (A) (A) (A)
                 (A) (A) (A) (A) (A) (A) (A) (A) (A) (A) (A) (A)
                 (A) (A) (A) (A) (A) (A) (A) (A) (A) (A) (A) (A)
                 (A) (A) (A) (A) (A) (A) (A) (A) (A) (A) (A) (A)
                 (A) (A) (A) (A) (A) (A) (A) (A) (A) (A) (A) (A)
                 (A) (A) (A) (A) (A) (A) (A) (A) (A) (A) (A) (A)
                 (A) (A) (A) (A) (A) (A) (A) (A) (A) (A) (A) (A)
                 (A) (A) (A) (A)
 The electronic state is 1-A.
 Alpha  occ. eigenvalues --  -19.14570 -19.11134 -10.27968 -10.19448 -10.19365
 Alpha  occ. eigenvalues --  -10.18815  -1.07008  -0.99513  -0.86327  -0.69687
 Alpha  occ. eigenvalues --   -0.64562  -0.54482  -0.51900  -0.50578  -0.48758
 Alpha  occ. eigenvalues --   -0.44981  -0.41743  -0.40998  -0.37815  -0.36914
 Alpha  occ. eigenvalues --   -0.35510  -0.35329  -0.30024  -0.27017
 Alpha virt. eigenvalues --   -0.04588  -0.01579  -0.00230   0.00500   0.00840
 Alpha virt. eigenvalues --    0.02125   0.03396   0.03679   0.04365   0.04626
 Alpha virt. eigenvalues --    0.05907   0.06829   0.07509   0.07858   0.08154
 Alpha virt. eigenvalues --    0.08413   0.08662   0.09568   0.09700   0.10827
 Alpha virt. eigenvalues --    0.10969   0.11132   0.11759   0.12440   0.13070
 Alpha virt. eigenvalues --    0.13600   0.14586   0.15492   0.15589   0.16432
 Alpha virt. eigenvalues --    0.17146   0.17994   0.19001   0.19450   0.19602
 Alpha virt. eigenvalues --    0.20135   0.20835   0.21614   0.22827   0.23417
 Alpha virt. eigenvalues --    0.23878   0.24664   0.25932   0.26431   0.26628
 Alpha virt. eigenvalues --    0.27402   0.27795   0.28194   0.28583   0.29138
 Alpha virt. eigenvalues --    0.29321   0.29968   0.30375   0.30901   0.31944
 Alpha virt. eigenvalues --    0.32103   0.32609   0.33794   0.34029   0.34533
 Alpha virt. eigenvalues --    0.35222   0.36067   0.37117   0.37360   0.38846
 Alpha virt. eigenvalues --    0.39043   0.39644   0.40215   0.40364   0.41134
 Alpha virt. eigenvalues --    0.42024   0.42620   0.42964   0.43820   0.45222
 Alpha virt. eigenvalues --    0.45516   0.46163   0.47486   0.48489   0.48968
 Alpha virt. eigenvalues --    0.49354   0.50888   0.51670   0.52021   0.52792
 Alpha virt. eigenvalues --    0.53398   0.53805   0.54363   0.58024   0.58700
 Alpha virt. eigenvalues --    0.58908   0.59831   0.62133   0.62400   0.63163
 Alpha virt. eigenvalues --    0.65066   0.66391   0.66653   0.68061   0.68409
 Alpha virt. eigenvalues --    0.69557   0.69857   0.70566   0.71332   0.71566
 Alpha virt. eigenvalues --    0.73503   0.73593   0.74430   0.74794   0.75998
 Alpha virt. eigenvalues --    0.76938   0.77771   0.78041   0.79028   0.79631
 Alpha virt. eigenvalues --    0.80289   0.80982   0.81452   0.82607   0.84057
 Alpha virt. eigenvalues --    0.84202   0.84548   0.85593   0.86668   0.88168
 Alpha virt. eigenvalues --    0.88518   0.88984   0.90360   0.91090   0.92093
 Alpha virt. eigenvalues --    0.92790   0.93312   0.93985   0.94292   0.94755
 Alpha virt. eigenvalues --    0.97979   0.98109   0.99657   1.00348   1.01734
 Alpha virt. eigenvalues --    1.02396   1.03630   1.03848   1.04423   1.05413
 Alpha virt. eigenvalues --    1.05619   1.06171   1.07738   1.09172   1.09855
 Alpha virt. eigenvalues --    1.10490   1.11693   1.12656   1.13348   1.14820
 Alpha virt. eigenvalues --    1.15630   1.16494   1.17123   1.17675   1.19723
 Alpha virt. eigenvalues --    1.20691   1.21805   1.22775   1.24155   1.25521
 Alpha virt. eigenvalues --    1.26086   1.28814   1.29536   1.30406   1.31392
 Alpha virt. eigenvalues --    1.32511   1.33174   1.34460   1.36733   1.38360
 Alpha virt. eigenvalues --    1.39206   1.40230   1.40876   1.42430   1.42594
 Alpha virt. eigenvalues --    1.43906   1.44518   1.46142   1.46802   1.47561
 Alpha virt. eigenvalues --    1.48570   1.48829   1.49411   1.51327   1.52319
 Alpha virt. eigenvalues --    1.52870   1.54994   1.55922   1.56238   1.57252
 Alpha virt. eigenvalues --    1.57723   1.59924   1.61118   1.62474   1.63930
 Alpha virt. eigenvalues --    1.65096   1.66382   1.66883   1.67636   1.70126
 Alpha virt. eigenvalues --    1.71962   1.72146   1.73182   1.74408   1.76143
 Alpha virt. eigenvalues --    1.77690   1.79695   1.81262   1.81710   1.83409
 Alpha virt. eigenvalues --    1.84071   1.87106   1.88704   1.89820   1.91220
 Alpha virt. eigenvalues --    1.92382   1.97095   1.97882   1.99011   2.02455
 Alpha virt. eigenvalues --    2.03686   2.04275   2.04754   2.05150   2.07204
 Alpha virt. eigenvalues --    2.09996   2.12663   2.13969   2.16407   2.17451
 Alpha virt. eigenvalues --    2.18807   2.20069   2.22260   2.23272   2.24454
 Alpha virt. eigenvalues --    2.25237   2.26629   2.28244   2.29345   2.31245
 Alpha virt. eigenvalues --    2.34104   2.36170   2.38345   2.39160   2.39637
 Alpha virt. eigenvalues --    2.42584   2.50391   2.51411   2.55360   2.56517
 Alpha virt. eigenvalues --    2.62146   2.64055   2.67064   2.68628   2.69945
 Alpha virt. eigenvalues --    2.73119   2.75153   2.76107   2.79387   2.81651
 Alpha virt. eigenvalues --    2.86625   2.88066   2.91439   2.96143   2.96746
 Alpha virt. eigenvalues --    3.01771   3.02427   3.04257   3.07654   3.09869
 Alpha virt. eigenvalues --    3.12225   3.14371   3.17206   3.19004   3.20418
 Alpha virt. eigenvalues --    3.22239   3.24046   3.29590   3.30085   3.31919
 Alpha virt. eigenvalues --    3.33695   3.34635   3.36242   3.37400   3.43556
 Alpha virt. eigenvalues --    3.46473   3.47469   3.48855   3.49771   3.53301
 Alpha virt. eigenvalues --    3.53763   3.54054   3.54969   3.57631   3.60070
 Alpha virt. eigenvalues --    3.61097   3.62796   3.63716   3.67076   3.69029
 Alpha virt. eigenvalues --    3.69998   3.71584   3.74322   3.77550   3.78317
 Alpha virt. eigenvalues --    3.80813   3.81645   3.83328   3.86235   3.86664
 Alpha virt. eigenvalues --    3.87961   3.90285   3.91597   3.94860   3.97164
 Alpha virt. eigenvalues --    3.97937   3.99615   4.00180   4.03132   4.04503
 Alpha virt. eigenvalues --    4.05610   4.05690   4.08729   4.10487   4.11982
 Alpha virt. eigenvalues --    4.14414   4.17323   4.17630   4.19158   4.21265
 Alpha virt. eigenvalues --    4.21921   4.25434   4.26771   4.29937   4.30589
 Alpha virt. eigenvalues --    4.31203   4.33569   4.35256   4.37861   4.38808
 Alpha virt. eigenvalues --    4.43425   4.45445   4.46215   4.49312   4.50908
 Alpha virt. eigenvalues --    4.53738   4.57444   4.59514   4.61664   4.63178
 Alpha virt. eigenvalues --    4.65537   4.67040   4.69852   4.72722   4.74136
 Alpha virt. eigenvalues --    4.76346   4.82975   4.85551   4.88242   4.88998
 Alpha virt. eigenvalues --    4.91906   4.92551   4.93998   4.97420   4.99203
 Alpha virt. eigenvalues --    5.02371   5.04173   5.07355   5.08994   5.10915
 Alpha virt. eigenvalues --    5.12638   5.13190   5.15408   5.17936   5.20684
 Alpha virt. eigenvalues --    5.22606   5.25509   5.27854   5.31085   5.36230
 Alpha virt. eigenvalues --    5.38602   5.41208   5.43429   5.45065   5.51042
 Alpha virt. eigenvalues --    5.56297   5.63180   5.64274   5.69107   5.77885
 Alpha virt. eigenvalues --    5.83644   5.86180   5.96734   5.99786   6.10809
 Alpha virt. eigenvalues --    6.13687   6.15412   6.16351   6.34667   6.37228
 Alpha virt. eigenvalues --    6.39804   6.42730   6.45650   6.49524   6.54524
 Alpha virt. eigenvalues --    6.58247   6.67646   6.78064   6.81999   6.85232
 Alpha virt. eigenvalues --    6.87889   6.90366   6.91000   6.93005   6.98629
 Alpha virt. eigenvalues --    7.02525   7.15954   7.18665   7.19532   7.29742
 Alpha virt. eigenvalues --    7.34365   7.39569   7.56891   7.58242   8.43306
 Alpha virt. eigenvalues --   14.46494  15.81705  15.89475  17.44008  18.61566
 Alpha virt. eigenvalues --   18.67314
          Condensed to atoms (all electrons):
               1          2          3          4          5          6
     1  C    5.613517   0.078740   0.109862  -0.140277   0.445253   0.355197
     2  C    0.078740   5.530489   0.072916  -0.050487  -0.021795  -0.033335
     3  C    0.109862   0.072916   5.494845  -0.051278  -0.000702  -0.001483
     4  C   -0.140277  -0.050487  -0.051278   5.635982  -0.033484   0.012329
     5  H    0.445253  -0.021795  -0.000702  -0.033484   0.440374  -0.004227
     6  H    0.355197  -0.033335  -0.001483   0.012329  -0.004227   0.431343
     7  H   -0.057559   0.403070  -0.029806   0.021684  -0.004505   0.003255
     8  H    0.001132   0.441651   0.003679  -0.023436   0.003707  -0.002492
     9  H    0.008779  -0.035725   0.414658  -0.011005   0.001394   0.000081
    10  H    0.011154  -0.049382   0.353553  -0.009702   0.001796   0.000831
    11  O   -0.058760   0.049760  -0.023518   0.091611  -0.007530  -0.016717
    12  O   -0.001942  -0.005225  -0.025531   0.023294  -0.000376   0.000138
    13  H   -0.006905   0.002668   0.007081   0.005731  -0.000045   0.000224
    14  H    0.000287   0.000059   0.009122  -0.004941   0.000090  -0.000153
               7          8          9         10         11         12
     1  C   -0.057559   0.001132   0.008779   0.011154  -0.058760  -0.001942
     2  C    0.403070   0.441651  -0.035725  -0.049382   0.049760  -0.005225
     3  C   -0.029806   0.003679   0.414658   0.353553  -0.023518  -0.025531
     4  C    0.021684  -0.023436  -0.011005  -0.009702   0.091611   0.023294
     5  H   -0.004505   0.003707   0.001394   0.001796  -0.007530  -0.000376
     6  H    0.003255  -0.002492   0.000081   0.000831  -0.016717   0.000138
     7  H    0.442653  -0.022802  -0.006406  -0.001474   0.003271   0.000309
     8  H   -0.022802   0.456060   0.005170  -0.003274  -0.002031  -0.000119
     9  H   -0.006406   0.005170   0.436842  -0.001704  -0.013662   0.000877
    10  H   -0.001474  -0.003274  -0.001704   0.445899   0.003279  -0.012153
    11  O    0.003271  -0.002031  -0.013662   0.003279   8.747692  -0.016573
    12  O    0.000309  -0.000119   0.000877  -0.012153  -0.016573   8.029662
    13  H    0.000557   0.000098  -0.000942  -0.001745  -0.022033   0.182016
    14  H   -0.000075   0.000192  -0.000329   0.001226  -0.004211   0.241666
              13         14
     1  C   -0.006905   0.000287
     2  C    0.002668   0.000059
     3  C    0.007081   0.009122
     4  C    0.005731  -0.004941
     5  H   -0.000045   0.000090
     6  H    0.000224  -0.000153
     7  H    0.000557  -0.000075
     8  H    0.000098   0.000192
     9  H   -0.000942  -0.000329
    10  H   -0.001745   0.001226
    11  O   -0.022033  -0.004211
    12  O    0.182016   0.241666
    13  H    0.528611   0.019299
    14  H    0.019299   0.624246
 Mulliken charges:
               1
     1  C   -0.358478
     2  C   -0.383405
     3  C   -0.333400
     4  C    0.533979
     5  H    0.180051
     6  H    0.255008
     7  H    0.247830
     8  H    0.142465
     9  H    0.201972
    10  H    0.261693
    11  O   -0.730577
    12  O   -0.416045
    13  H    0.285386
    14  H    0.113522
 Sum of Mulliken charges =   0.00000
 Mulliken charges with hydrogens summed into heavy atoms:
               1
     1  C    0.076581
     2  C    0.006889
     3  C    0.130265
     4  C    0.533979
    11  O   -0.730577
    12  O   -0.017138
 Electronic spatial extent (au):  <R**2>=            760.2491
 Charge=              0.0000 electrons
 Dipole moment (field-independent basis, Debye):
    X=             -2.7072    Y=             -0.5861    Z=              0.7545  Tot=              2.8709
 Quadrupole moment (field-independent basis, Debye-Ang):
   XX=            -36.3370   YY=            -40.7916   ZZ=            -35.0571
   XY=              1.2297   XZ=              4.3217   YZ=             -0.0931
 Traceless Quadrupole moment (field-independent basis, Debye-Ang):
   XX=              1.0583   YY=             -3.3964   ZZ=              2.3381
   XY=              1.2297   XZ=              4.3217   YZ=             -0.0931
 Octapole moment (field-independent basis, Debye-Ang**2):
  XXX=             17.6008  YYY=             -2.2884  ZZZ=              0.5237  XYY=             -1.4551
  XXY=              9.7951  XXZ=             14.9612  XZZ=              3.8573  YZZ=              0.6410
  YYZ=              0.1236  XYZ=             -1.3807
 Hexadecapole moment (field-independent basis, Debye-Ang**3):
 XXXX=           -621.8097 YYYY=           -244.3969 ZZZZ=            -60.6748 XXXY=             15.9692
 XXXZ=             63.6133 YYYX=             -4.2290 YYYZ=              0.0513 ZZZX=              4.2593
 ZZZY=              0.1975 XXYY=           -154.7549 XXZZ=           -111.5657 YYZZ=            -46.3635
 XXYZ=             -3.3150 YYXZ=              1.4054 ZZXY=             -1.3757
 N-N= 2.337065478433D+02 E-N=-1.187125694605D+03  KE= 3.059608863430D+02
 Calling FoFJK, ICntrl=      2127 FMM=F ISym2X=0 I1Cent= 0 IOpClX= 0 NMat=1 NMatS=1 NMatT=0.
 ***** Axes restored to original set *****
 -------------------------------------------------------------------
 Center     Atomic                   Forces (Hartrees/Bohr)
 Number     Number              X              Y              Z
 -------------------------------------------------------------------
      1        6           0.000589405    0.000095182   -0.000384311
      2        6          -0.000831124    0.000784638   -0.000009653
      3        6          -0.000240624   -0.000477186   -0.000172402
      4        6           0.000016414   -0.001386241    0.000808141
      5        1          -0.000880086   -0.000961775    0.001122588
      6        1          -0.000600011   -0.001109135   -0.000979369
      7        1          -0.001095549    0.000928696    0.000663665
      8        1          -0.000556286    0.000756494   -0.001369625
      9        1           0.000656325    0.000743611    0.001344074
     10        1           0.000818359    0.001149001   -0.000664534
     11        8           0.000886422   -0.000298105    0.000045354
     12        8           0.000856308    0.003634644    0.001356825
     13        1          -0.003223124   -0.003706109    0.000450414
     14        1           0.003603570   -0.000153714   -0.002211168
 -------------------------------------------------------------------
 Cartesian Forces:  Max     0.003706109 RMS     0.001376499

 GradGradGradGradGradGradGradGradGradGradGradGradGradGradGradGradGradGrad
 Berny optimization.
 FormGI is forming the generalized inverse of G from B-inverse, IUseBI=4.
 Internal  Forces:  Max     0.005473638 RMS     0.001273818
 Search for a local minimum.
 Step number   1 out of a maximum of   82
 All quantities printed in internal units (Hartrees-Bohrs-Radians)
 Mixed Optimization -- RFO/linear search
 Second derivative matrix not updated -- first step.
 ITU=  0
     Eigenvalues ---    0.00230   0.00353   0.01060   0.01473   0.02595
     Eigenvalues ---    0.03969   0.04296   0.04646   0.04726   0.04763
     Eigenvalues ---    0.04914   0.05318   0.06004   0.06394   0.07687
     Eigenvalues ---    0.07771   0.08301   0.08527   0.16000   0.16000
     Eigenvalues ---    0.22112   0.24664   0.25000   0.25992   0.26418
     Eigenvalues ---    0.28999   0.29288   0.34897   0.34918   0.35193
     Eigenvalues ---    0.35342   0.35361   0.35502   0.54127   0.56104
     Eigenvalues ---    1.03255
 RFO step:  Lambda=-8.20119869D-04 EMin= 2.30000000D-03
 Linear search not attempted -- first point.
 Iteration  1 RMS(Cart)=  0.06471284 RMS(Int)=  0.01485285
 Iteration  2 RMS(Cart)=  0.02073618 RMS(Int)=  0.00141868
 Iteration  3 RMS(Cart)=  0.00124500 RMS(Int)=  0.00002219
 Iteration  4 RMS(Cart)=  0.00000532 RMS(Int)=  0.00002194
 Iteration  5 RMS(Cart)=  0.00000000 RMS(Int)=  0.00002194
 Variable       Old X    -DE/DX   Delta X   Delta X   Delta X     New X
                                 (Linear)    (Quad)   (Total)
    R1        2.93905   0.00201   0.00000   0.00720   0.00720   2.94625
    R2        2.87960   0.00143   0.00000   0.00492   0.00492   2.88452
    R3        2.05808   0.00163   0.00000   0.00466   0.00466   2.06274
    R4        2.05363   0.00156   0.00000   0.00443   0.00443   2.05806
    R5        2.93650   0.00203   0.00000   0.00726   0.00726   2.94376
    R6        2.04867   0.00155   0.00000   0.00435   0.00435   2.05303
    R7        2.05092   0.00159   0.00000   0.00450   0.00450   2.05542
    R8        2.87632   0.00189   0.00000   0.00640   0.00639   2.88272
    R9        2.05842   0.00157   0.00000   0.00449   0.00449   2.06291
   R10        2.05123   0.00148   0.00000   0.00419   0.00419   2.05542
   R11        2.27363   0.00194   0.00000   0.00188   0.00188   2.27551
   R12        3.66632   0.00090   0.00000   0.01851   0.01851   3.68483
   R13        1.82616   0.00547   0.00000   0.01010   0.01010   1.83626
   R14        1.80864   0.00401   0.00000   0.00714   0.00714   1.81578
    A1        1.52696   0.00052   0.00000   0.00447   0.00440   1.53136
    A2        1.97822   0.00003   0.00000   0.00110   0.00110   1.97932
    A3        2.07115   0.00004   0.00000   0.00155   0.00157   2.07272
    A4        1.93834  -0.00013   0.00000  -0.00054  -0.00053   1.93781
    A5        2.02298  -0.00016   0.00000  -0.00040  -0.00038   2.02260
    A6        1.90226  -0.00020   0.00000  -0.00451  -0.00452   1.89774
    A7        1.57573  -0.00052   0.00000  -0.00152  -0.00159   1.57414
    A8        2.01959   0.00025   0.00000   0.00208   0.00210   2.02169
    A9        1.96054   0.00021   0.00000   0.00091   0.00093   1.96147
   A10        2.02282   0.00025   0.00000   0.00167   0.00170   2.02452
   A11        1.96186   0.00018   0.00000   0.00077   0.00079   1.96265
   A12        1.90656  -0.00034   0.00000  -0.00327  -0.00329   1.90327
   A13        1.52888   0.00036   0.00000   0.00398   0.00390   1.53278
   A14        1.98041   0.00013   0.00000   0.00103   0.00104   1.98145
   A15        2.09175  -0.00022   0.00000  -0.00238  -0.00237   2.08938
   A16        1.93459  -0.00009   0.00000   0.00018   0.00019   1.93478
   A17        2.01395   0.00012   0.00000   0.00368   0.00371   2.01767
   A18        1.89157  -0.00020   0.00000  -0.00448  -0.00449   1.88708
   A19        1.61796  -0.00032   0.00000  -0.00055  -0.00062   1.61734
   A20        2.32714  -0.00104   0.00000  -0.00460  -0.00456   2.32259
   A21        2.33463   0.00135   0.00000   0.00498   0.00501   2.33965
   A22        1.81373   0.00478   0.00000   0.02972   0.02972   1.84345
   A23        1.82719   0.00208   0.00000   0.01295   0.01295   1.84015
   A24        2.77726   0.00174   0.00000   0.00694   0.00694   2.78419
    D1       -0.18090   0.00009   0.00000   0.01708   0.01709  -0.16381
    D2       -2.26055   0.00002   0.00000   0.01544   0.01545  -2.24510
    D3        1.81686   0.00009   0.00000   0.01742   0.01741   1.83427
    D4        1.77193   0.00019   0.00000   0.01863   0.01862   1.79055
    D5       -0.30772   0.00012   0.00000   0.01698   0.01698  -0.29074
    D6       -2.51350   0.00019   0.00000   0.01896   0.01895  -2.49455
    D7       -2.24605  -0.00004   0.00000   0.01449   0.01450  -2.23155
    D8        1.95748  -0.00011   0.00000   0.01285   0.01286   1.97034
    D9       -0.24830  -0.00004   0.00000   0.01483   0.01483  -0.23347
   D10        0.18493  -0.00009   0.00000  -0.01743  -0.01744   0.16749
   D11       -2.87390  -0.00013   0.00000  -0.01583  -0.01585  -2.88974
   D12       -1.80626  -0.00032   0.00000  -0.02034  -0.02033  -1.82660
   D13        1.41810  -0.00036   0.00000  -0.01875  -0.01874   1.39936
   D14        2.29387   0.00020   0.00000  -0.01335  -0.01336   2.28051
   D15       -0.76495   0.00016   0.00000  -0.01175  -0.01177  -0.77672
   D16        0.18109  -0.00012   0.00000  -0.01719  -0.01719   0.16390
   D17       -1.76876  -0.00020   0.00000  -0.01931  -0.01930  -1.78806
   D18        2.24202   0.00020   0.00000  -0.01096  -0.01097   2.23105
   D19        2.25793  -0.00006   0.00000  -0.01519  -0.01520   2.24274
   D20        0.30808  -0.00014   0.00000  -0.01731  -0.01731   0.29078
   D21       -1.96432   0.00026   0.00000  -0.00896  -0.00898  -1.97330
   D22       -1.81547  -0.00015   0.00000  -0.01765  -0.01764  -1.83311
   D23        2.51787  -0.00023   0.00000  -0.01977  -0.01975   2.49811
   D24        0.24546   0.00017   0.00000  -0.01142  -0.01143   0.23403
   D25       -0.18508   0.00009   0.00000   0.01744   0.01745  -0.16763
   D26        2.87316  -0.00006   0.00000   0.01507   0.01507   2.88822
   D27        1.80878   0.00036   0.00000   0.02016   0.02015   1.82893
   D28       -1.41618   0.00022   0.00000   0.01779   0.01777  -1.39840
   D29       -2.31625   0.00012   0.00000   0.01710   0.01711  -2.29913
   D30        0.74199  -0.00003   0.00000   0.01473   0.01473   0.75672
   D31        2.97454  -0.00014   0.00000  -0.00361  -0.00362   2.97092
   D32       -0.05246  -0.00005   0.00000  -0.00084  -0.00084  -0.05329
   D33       -0.25733  -0.00094   0.00000  -0.30200  -0.30200  -0.55933
   D34       -2.16424  -0.00120   0.00000  -0.07692  -0.07692  -2.24116
         Item               Value     Threshold  Converged?
 Maximum Force            0.005474     0.000450     NO 
 RMS     Force            0.001274     0.000300     NO 
 Maximum Displacement     0.369220     0.001800     NO 
 RMS     Displacement     0.082029     0.001200     NO 
 Predicted change in Energy=-4.540877D-04
 GradGradGradGradGradGradGradGradGradGradGradGradGradGradGradGradGradGrad

                          Input orientation:                          
 ---------------------------------------------------------------------
 Center     Atomic      Atomic             Coordinates (Angstroms)
 Number     Number       Type             X           Y           Z
 ---------------------------------------------------------------------
      1          6           0       -1.779966   -0.649232   -0.054019
      2          6           0       -1.832062    0.904558   -0.171389
      3          6           0       -0.329220    0.990464    0.229534
      4          6           0       -0.265216   -0.527216    0.089521
      5          1           0       -2.230991   -1.030104    0.864132
      6          1           0       -2.131332   -1.250048   -0.891669
      7          1           0       -2.531245    1.406254    0.491744
      8          1           0       -2.009460    1.237156   -1.191665
      9          1           0       -0.171446    1.292049    1.266764
     10          1           0        0.364127    1.549733   -0.394599
     11          8           0        0.634586   -1.324098    0.016661
     12          8           0        2.876073    0.477342   -0.147784
     13          1           0        2.273210   -0.267155    0.014989
     14          1           0        3.647966    0.093277   -0.571985
 ---------------------------------------------------------------------
                    Distance matrix (angstroms):
                    1          2          3          4          5
     1  C    0.000000
     2  C    1.559088   0.000000
     3  C    2.207639   1.557772   0.000000
     4  C    1.526421   2.138472   1.525468   0.000000
     5  H    1.091553   2.230329   2.846426   2.171910   0.000000
     6  H    1.089080   2.291439   3.086194   2.228814   1.772327
     7  H    2.255504   1.086416   2.256224   3.005824   2.482874
     8  H    2.214806   1.087683   2.214468   2.792281   3.068525
     9  H    2.846116   2.230713   1.091647   2.168967   3.129893
    10  H    3.090077   2.299852   1.087682   2.223547   3.869703
    11  O    2.508087   3.329658   2.516234   1.204148   3.002693
    12  O    4.791311   4.727537   3.267961   3.306531   5.420191
    13  H    4.071730   4.273278   2.898323   2.552801   4.646607
    14  H    5.502913   5.554220   4.155163   4.016913   6.155205
                    6          7          8          9         10
     6  H    0.000000
     7  H    3.021539   0.000000
     8  H    2.508194   1.770513   0.000000
     9  H    3.868105   2.486433   3.070046   0.000000
    10  H    3.783274   3.031397   2.523278   1.764473   0.000000
    11  O    2.912189   4.207494   3.874410   3.009430   2.915680
    12  O    5.348958   5.523673   5.053260   3.457176   2.742410
    13  H    4.603053   5.109831   4.696831   3.158227   2.667104
    14  H    5.941969   6.406096   5.805078   4.405219   3.596711
                   11         12         13         14
    11  O    0.000000
    12  O    2.880364   0.000000
    13  H    1.949929   0.971707   0.000000
    14  H    3.381703   0.960870   1.537661   0.000000
 Stoichiometry    C4H8O2
 Framework group  C1[X(C4H8O2)]
 Deg. of freedom    36
 Full point group                 C1      NOp   1
 Largest Abelian subgroup         C1      NOp   1
 Largest concise Abelian subgroup C1      NOp   1
                         Standard orientation:                         
 ---------------------------------------------------------------------
 Center     Atomic      Atomic             Coordinates (Angstroms)
 Number     Number       Type             X           Y           Z
 ---------------------------------------------------------------------
      1          6           0       -1.774694    0.675635    0.069128
      2          6           0       -1.837203   -0.877617    0.188526
      3          6           0       -0.343113   -0.976013   -0.241204
      4          6           0       -0.264036    0.541165   -0.103471
      5          1           0       -2.240195    1.059708   -0.840423
      6          1           0       -2.104944    1.279735    0.912984
      7          1           0       -2.553101   -1.373922   -0.460682
      8          1           0       -1.997625   -1.208228    1.212252
      9          1           0       -0.207814   -1.279412   -1.281076
     10          1           0        0.357538   -1.540609    0.369838
     11          8           0        0.643478    1.330702   -0.048488
     12          8           0        2.872935   -0.488918    0.073976
     13          1           0        2.273147    0.260399   -0.077658
     14          1           0        3.655965   -0.110957    0.482976
 ---------------------------------------------------------------------
 Rotational constants (GHZ):      6.4211691      1.9086666      1.5311403
 Standard basis: Aug-CC-pVTZ (5D, 7F)
 There are   530 symmetry adapted cartesian basis functions of A   symmetry.
 There are   460 symmetry adapted basis functions of A   symmetry.
   460 basis functions,   648 primitive gaussians,   530 cartesian basis functions
    24 alpha electrons       24 beta electrons
       nuclear repulsion energy       232.1426337146 Hartrees.
 NAtoms=   14 NActive=   14 NUniq=   14 SFac= 1.00D+00 NAtFMM=   60 NAOKFM=F Big=F
 Integral buffers will be    131072 words long.
 Raffenetti 2 integral format.
 Two-electron integral symmetry is turned on.
 Nuclear repulsion after empirical dispersion term =      232.1344254458 Hartrees.
 One-electron integrals computed using PRISM.
 NBasis=   460 RedAO= T EigKep=  3.53D-06  NBF=   460
 NBsUse=   460 1.00D-06 EigRej= -1.00D+00 NBFU=   460
 Initial guess from the checkpoint file:  "1191-95-3.chk"
 B after Tr=     0.000000    0.000000    0.000000
         Rot=    0.999981    0.003187   -0.001279    0.005103 Ang=   0.70 deg.
 ExpMin= 2.53D-02 ExpMax= 1.53D+04 ExpMxC= 5.22D+02 IAcc=3 IRadAn=         5 AccDes= 0.00D+00
 Harris functional with IExCor=  402 and IRadAn=       5 diagonalized for initial guess.
 HarFok:  IExCor=  402 AccDes= 0.00D+00 IRadAn=         5 IDoV= 1 UseB2=F ITyADJ=14
 ICtDFT=  3500011 ScaDFX=  1.000000  1.000000  1.000000  1.000000
 FoFCou: FMM=F IPFlag=           0 FMFlag=      100000 FMFlg1=           0
         NFxFlg=           0 DoJE=T BraDBF=F KetDBF=T FulRan=T
         wScrn=  0.000000 ICntrl=     500 IOpCl=  0 I1Cent=   200000004 NGrid=           0
         NMat0=    1 NMatS0=      1 NMatT0=    0 NMatD0=    1 NMtDS0=    0 NMtDT0=    0
 Petite list used in FoFCou.
 Requested convergence on RMS density matrix=1.00D-08 within 128 cycles.
 Requested convergence on MAX density matrix=1.00D-06.
 Requested convergence on             energy=1.00D-06.
 No special actions if energy rises.
 SCF Done:  E(RB3LYP) =  -307.801162426     A.U. after   10 cycles
            NFock= 10  Conv=0.62D-08     -V/T= 2.0063
 Calling FoFJK, ICntrl=      2127 FMM=F ISym2X=0 I1Cent= 0 IOpClX= 0 NMat=1 NMatS=1 NMatT=0.
 ***** Axes restored to original set *****
 -------------------------------------------------------------------
 Center     Atomic                   Forces (Hartrees/Bohr)
 Number     Number              X              Y              Z
 -------------------------------------------------------------------
      1        6           0.000039363    0.000370091    0.001163869
      2        6           0.000472690   -0.000199725   -0.001379061
      3        6           0.000199659   -0.000503194    0.001687729
      4        6          -0.000374288   -0.001776516   -0.001598888
      5        1          -0.000282292   -0.000388953   -0.000111534
      6        1           0.000134182    0.000084752   -0.000124661
      7        1           0.000216675   -0.000125035    0.000176647
      8        1          -0.000163291    0.000174322    0.000095672
      9        1           0.000188451    0.000264008    0.000100257
     10        1           0.000145054    0.000099193   -0.000698693
     11        8          -0.000486212    0.002136814    0.001396404
     12        8          -0.000479209   -0.000008006    0.000987715
     13        1           0.000604087   -0.000064710   -0.002034493
     14        1          -0.000214868   -0.000063040    0.000339035
 -------------------------------------------------------------------
 Cartesian Forces:  Max     0.002136814 RMS     0.000792250

 GradGradGradGradGradGradGradGradGradGradGradGradGradGradGradGradGradGrad
 Berny optimization.
 Using GEDIIS/GDIIS optimizer.
 FormGI is forming the generalized inverse of G from B-inverse, IUseBI=4.
 Internal  Forces:  Max     0.001778707 RMS     0.000386673
 Search for a local minimum.
 Step number   2 out of a maximum of   82
 All quantities printed in internal units (Hartrees-Bohrs-Radians)
 Mixed Optimization -- En-DIIS/RFO-DIIS
 Update second derivatives using D2CorX and points    1    2
 DE= -3.08D-04 DEPred=-4.54D-04 R= 6.78D-01
 TightC=F SS=  1.41D+00  RLast= 3.27D-01 DXNew= 5.0454D-01 9.8245D-01
 Trust test= 6.78D-01 RLast= 3.27D-01 DXMaxT set to 5.05D-01
 ITU=  1  0
 Use linear search instead of GDIIS.
     Eigenvalues ---    0.00320   0.00358   0.01059   0.01344   0.02584
     Eigenvalues ---    0.04003   0.04289   0.04686   0.04739   0.04777
     Eigenvalues ---    0.04909   0.05324   0.06000   0.06432   0.07665
     Eigenvalues ---    0.07759   0.08226   0.08532   0.15440   0.16025
     Eigenvalues ---    0.22208   0.24669   0.25519   0.26030   0.26355
     Eigenvalues ---    0.29050   0.29430   0.34442   0.34908   0.35105
     Eigenvalues ---    0.35258   0.35390   0.35526   0.54151   0.55910
     Eigenvalues ---    1.04257
 RFO step:  Lambda=-8.19217873D-05 EMin= 3.20291961D-03
 Quartic linear search produced a step of -0.16963.
 Iteration  1 RMS(Cart)=  0.01570706 RMS(Int)=  0.00081762
 Iteration  2 RMS(Cart)=  0.00067114 RMS(Int)=  0.00000619
 Iteration  3 RMS(Cart)=  0.00000156 RMS(Int)=  0.00000612
 Iteration  4 RMS(Cart)=  0.00000000 RMS(Int)=  0.00000612
 Variable       Old X    -DE/DX   Delta X   Delta X   Delta X     New X
                                 (Linear)    (Quad)   (Total)
    R1        2.94625   0.00011  -0.00122   0.00240   0.00118   2.94743
    R2        2.88452  -0.00023  -0.00083   0.00072  -0.00011   2.88441
    R3        2.06274   0.00016  -0.00079   0.00174   0.00095   2.06368
    R4        2.05806   0.00000  -0.00075   0.00131   0.00056   2.05862
    R5        2.94376  -0.00007  -0.00123   0.00202   0.00079   2.94455
    R6        2.05303  -0.00009  -0.00074   0.00107   0.00033   2.05336
    R7        2.05542  -0.00001  -0.00076   0.00129   0.00053   2.05595
    R8        2.88272  -0.00033  -0.00108   0.00097  -0.00011   2.88261
    R9        2.06291   0.00020  -0.00076   0.00179   0.00102   2.06394
   R10        2.05542   0.00055  -0.00071   0.00251   0.00180   2.05722
   R11        2.27551  -0.00178  -0.00032  -0.00088  -0.00120   2.27431
   R12        3.68483  -0.00017  -0.00314   0.00247  -0.00067   3.68416
   R13        1.83626  -0.00072  -0.00171   0.00185   0.00014   1.83640
   R14        1.81578  -0.00029  -0.00121   0.00166   0.00045   1.81623
    A1        1.53136  -0.00035  -0.00075  -0.00033  -0.00106   1.53030
    A2        1.97932   0.00044  -0.00019   0.00366   0.00346   1.98278
    A3        2.07272  -0.00016  -0.00027  -0.00141  -0.00168   2.07105
    A4        1.93781   0.00029   0.00009   0.00283   0.00292   1.94073
    A5        2.02260  -0.00001   0.00006  -0.00215  -0.00209   2.02051
    A6        1.89774  -0.00017   0.00077  -0.00188  -0.00110   1.89664
    A7        1.57414   0.00015   0.00027   0.00016   0.00044   1.57459
    A8        2.02169  -0.00014  -0.00036  -0.00107  -0.00144   2.02026
    A9        1.96147   0.00011  -0.00016   0.00254   0.00238   1.96385
   A10        2.02452  -0.00021  -0.00029  -0.00225  -0.00254   2.02197
   A11        1.96265   0.00008  -0.00013   0.00194   0.00180   1.96445
   A12        1.90327   0.00003   0.00056  -0.00090  -0.00034   1.90293
   A13        1.53278  -0.00026  -0.00066  -0.00028  -0.00093   1.53185
   A14        1.98145   0.00028  -0.00018   0.00303   0.00286   1.98431
   A15        2.08938  -0.00023   0.00040  -0.00386  -0.00347   2.08591
   A16        1.93478   0.00026  -0.00003   0.00310   0.00306   1.93784
   A17        2.01767  -0.00006  -0.00063  -0.00126  -0.00191   2.01576
   A18        1.88708   0.00001   0.00076  -0.00020   0.00057   1.88764
   A19        1.61734   0.00037   0.00011   0.00112   0.00124   1.61858
   A20        2.32259   0.00119   0.00077   0.00282   0.00359   2.32617
   A21        2.33965  -0.00155  -0.00085  -0.00366  -0.00452   2.33513
   A22        1.84345  -0.00025  -0.00504   0.00742   0.00238   1.84583
   A23        1.84015  -0.00032  -0.00220   0.00213  -0.00007   1.84008
   A24        2.78419   0.00051  -0.00118   0.00373   0.00255   2.78675
    D1       -0.16381  -0.00026  -0.00290   0.00203  -0.00087  -0.16468
    D2       -2.24510  -0.00007  -0.00262   0.00481   0.00219  -2.24291
    D3        1.83427  -0.00008  -0.00295   0.00472   0.00177   1.83604
    D4        1.79055  -0.00004  -0.00316   0.00547   0.00232   1.79287
    D5       -0.29074   0.00015  -0.00288   0.00826   0.00538  -0.28536
    D6       -2.49455   0.00013  -0.00321   0.00816   0.00495  -2.48959
    D7       -2.23155   0.00000  -0.00246   0.00509   0.00263  -2.22893
    D8        1.97034   0.00019  -0.00218   0.00787   0.00569   1.97603
    D9       -0.23347   0.00017  -0.00252   0.00778   0.00526  -0.22821
   D10        0.16749   0.00028   0.00296  -0.00201   0.00095   0.16844
   D11       -2.88974   0.00030   0.00269  -0.00511  -0.00243  -2.89217
   D12       -1.82660  -0.00009   0.00345  -0.00619  -0.00274  -1.82934
   D13        1.39936  -0.00006   0.00318  -0.00929  -0.00612   1.39323
   D14        2.28051  -0.00010   0.00227  -0.00432  -0.00204   2.27847
   D15       -0.77672  -0.00007   0.00200  -0.00741  -0.00542  -0.78214
   D16        0.16390   0.00026   0.00292  -0.00205   0.00087   0.16477
   D17       -1.78806   0.00005   0.00327  -0.00573  -0.00246  -1.79052
   D18        2.23105  -0.00003   0.00186  -0.00474  -0.00288   2.22817
   D19        2.24274   0.00013   0.00258  -0.00381  -0.00123   2.24151
   D20        0.29078  -0.00008   0.00294  -0.00749  -0.00456   0.28622
   D21       -1.97330  -0.00016   0.00152  -0.00650  -0.00497  -1.97828
   D22       -1.83311   0.00006   0.00299  -0.00528  -0.00230  -1.83541
   D23        2.49811  -0.00015   0.00335  -0.00897  -0.00562   2.49249
   D24        0.23403  -0.00023   0.00194  -0.00798  -0.00604   0.22799
   D25       -0.16763  -0.00029  -0.00296   0.00199  -0.00097  -0.16860
   D26        2.88822  -0.00009  -0.00256   0.00567   0.00310   2.89132
   D27        1.82893  -0.00006  -0.00342   0.00555   0.00214   1.83107
   D28       -1.39840   0.00014  -0.00301   0.00923   0.00621  -1.39219
   D29       -2.29913   0.00013  -0.00290   0.00686   0.00396  -2.29517
   D30        0.75672   0.00033  -0.00250   0.01054   0.00803   0.76475
   D31        2.97092  -0.00009   0.00061  -0.00142  -0.00080   2.97012
   D32       -0.05329  -0.00024   0.00014  -0.00616  -0.00602  -0.05931
   D33       -0.55933   0.00041   0.05123   0.07531   0.12654  -0.43279
   D34       -2.24116  -0.00039   0.01305  -0.04359  -0.03054  -2.27170
         Item               Value     Threshold  Converged?
 Maximum Force            0.001779     0.000450     NO 
 RMS     Force            0.000387     0.000300     NO 
 Maximum Displacement     0.067830     0.001800     NO 
 RMS     Displacement     0.015626     0.001200     NO 
 Predicted change in Energy=-4.548009D-05
 GradGradGradGradGradGradGradGradGradGradGradGradGradGradGradGradGradGrad

                          Input orientation:                          
 ---------------------------------------------------------------------
 Center     Atomic      Atomic             Coordinates (Angstroms)
 Number     Number       Type             X           Y           Z
 ---------------------------------------------------------------------
      1          6           0       -1.782177   -0.649136   -0.052756
      2          6           0       -1.826028    0.905226   -0.174149
      3          6           0       -0.322807    0.984985    0.228238
      4          6           0       -0.266998   -0.533183    0.090663
      5          1           0       -2.237630   -1.029176    0.864149
      6          1           0       -2.133950   -1.248867   -0.891396
      7          1           0       -2.521691    1.411176    0.489740
      8          1           0       -2.003154    1.238680   -1.194493
      9          1           0       -0.161435    1.290849    1.264232
     10          1           0        0.372167    1.538361   -0.400978
     11          8           0        0.631630   -1.330884    0.022966
     12          8           0        2.871000    0.476127   -0.111890
     13          1           0        2.273424   -0.279550    0.015429
     14          1           0        3.622672    0.128371   -0.599521
 ---------------------------------------------------------------------
                    Distance matrix (angstroms):
                    1          2          3          4          5
     1  C    0.000000
     2  C    1.559712   0.000000
     3  C    2.208862   1.558188   0.000000
     4  C    1.526361   2.137690   1.525410   0.000000
     5  H    1.092055   2.233694   2.850925   2.174323   0.000000
     6  H    1.089375   2.291152   3.086084   2.227589   1.772273
     7  H    2.255232   1.086592   2.255020   3.003903   2.485194
     8  H    2.217260   1.087964   2.216324   2.793808   3.071832
     9  H    2.850404   2.233498   1.092189   2.171520   3.138975
    10  H    3.089918   2.298776   1.088635   2.222957   3.873478
    11  O    2.509378   3.328532   2.513232   1.203513   3.005208
    12  O    4.787668   4.716999   3.251927   3.302540   5.414489
    13  H    4.072977   4.271433   2.895643   2.554160   4.651008
    14  H    5.487791   5.520215   4.121380   4.005439   6.150234
                    6          7          8          9         10
     6  H    0.000000
     7  H    3.022203   0.000000
     8  H    2.509356   1.770671   0.000000
     9  H    3.871395   2.486991   3.072455   0.000000
    10  H    3.780181   3.030506   2.522226   1.766046   0.000000
    11  O    2.913969   4.204784   3.876461   3.007187   2.911978
    12  O    5.350959   5.506124   5.050832   3.428286   2.730583
    13  H    4.602917   5.106531   4.696600   3.155028   2.663264
    14  H    5.926269   6.370657   5.765128   4.375430   3.548700
                   11         12         13         14
    11  O    0.000000
    12  O    2.880669   0.000000
    13  H    1.949576   0.971779   0.000000
    14  H    3.385741   0.961108   1.537866   0.000000
 Stoichiometry    C4H8O2
 Framework group  C1[X(C4H8O2)]
 Deg. of freedom    36
 Full point group                 C1      NOp   1
 Largest Abelian subgroup         C1      NOp   1
 Largest concise Abelian subgroup C1      NOp   1
                         Standard orientation:                         
 ---------------------------------------------------------------------
 Center     Atomic      Atomic             Coordinates (Angstroms)
 Number     Number       Type             X           Y           Z
 ---------------------------------------------------------------------
      1          6           0       -1.778009    0.670405    0.064062
      2          6           0       -1.830398   -0.883601    0.186626
      3          6           0       -0.333360   -0.973342   -0.236190
      4          6           0       -0.265721    0.544466   -0.099960
      5          1           0       -2.243421    1.053164   -0.846691
      6          1           0       -2.114371    1.272673    0.907194
      7          1           0       -2.538355   -1.385163   -0.467527
      8          1           0       -1.995777   -1.215592    1.209415
      9          1           0       -0.188141   -1.280556   -1.274173
     10          1           0        0.366484   -1.531089    0.383700
     11          8           0        0.638962    1.336269   -0.044822
     12          8           0        2.868059   -0.485366    0.060167
     13          1           0        2.273772    0.274181   -0.059275
     14          1           0        3.628575   -0.142413    0.537373
 ---------------------------------------------------------------------
 Rotational constants (GHZ):      6.4078858      1.9161830      1.5347939
 Standard basis: Aug-CC-pVTZ (5D, 7F)
 There are   530 symmetry adapted cartesian basis functions of A   symmetry.
 There are   460 symmetry adapted basis functions of A   symmetry.
   460 basis functions,   648 primitive gaussians,   530 cartesian basis functions
    24 alpha electrons       24 beta electrons
       nuclear repulsion energy       232.2350229641 Hartrees.
 NAtoms=   14 NActive=   14 NUniq=   14 SFac= 1.00D+00 NAtFMM=   60 NAOKFM=F Big=F
 Integral buffers will be    131072 words long.
 Raffenetti 2 integral format.
 Two-electron integral symmetry is turned on.
 Nuclear repulsion after empirical dispersion term =      232.2267873311 Hartrees.
 One-electron integrals computed using PRISM.
 NBasis=   460 RedAO= T EigKep=  3.54D-06  NBF=   460
 NBsUse=   460 1.00D-06 EigRej= -1.00D+00 NBFU=   460
 Initial guess from the checkpoint file:  "1191-95-3.chk"
 B after Tr=     0.000000    0.000000    0.000000
         Rot=    0.999999   -0.000666    0.000349   -0.001133 Ang=  -0.16 deg.
 ExpMin= 2.53D-02 ExpMax= 1.53D+04 ExpMxC= 5.22D+02 IAcc=3 IRadAn=         5 AccDes= 0.00D+00
 Harris functional with IExCor=  402 and IRadAn=       5 diagonalized for initial guess.
 HarFok:  IExCor=  402 AccDes= 0.00D+00 IRadAn=         5 IDoV= 1 UseB2=F ITyADJ=14
 ICtDFT=  3500011 ScaDFX=  1.000000  1.000000  1.000000  1.000000
 FoFCou: FMM=F IPFlag=           0 FMFlag=      100000 FMFlg1=           0
         NFxFlg=           0 DoJE=T BraDBF=F KetDBF=T FulRan=T
         wScrn=  0.000000 ICntrl=     500 IOpCl=  0 I1Cent=   200000004 NGrid=           0
         NMat0=    1 NMatS0=      1 NMatT0=    0 NMatD0=    1 NMtDS0=    0 NMtDT0=    0
 Petite list used in FoFCou.
 Requested convergence on RMS density matrix=1.00D-08 within 128 cycles.
 Requested convergence on MAX density matrix=1.00D-06.
 Requested convergence on             energy=1.00D-06.
 No special actions if energy rises.
 SCF Done:  E(RB3LYP) =  -307.801230823     A.U. after    9 cycles
            NFock=  9  Conv=0.41D-08     -V/T= 2.0063
 Calling FoFJK, ICntrl=      2127 FMM=F ISym2X=0 I1Cent= 0 IOpClX= 0 NMat=1 NMatS=1 NMatT=0.
 ***** Axes restored to original set *****
 -------------------------------------------------------------------
 Center     Atomic                   Forces (Hartrees/Bohr)
 Number     Number              X              Y              Z
 -------------------------------------------------------------------
      1        6           0.000015444    0.000289988    0.000519337
      2        6           0.000115104   -0.000062174   -0.000499251
      3        6           0.000043007   -0.000136896    0.000700335
      4        6          -0.000177800   -0.000556168   -0.000480862
      5        1          -0.000023921   -0.000042984   -0.000319980
      6        1           0.000122605    0.000141235   -0.000010598
      7        1           0.000124620   -0.000173600    0.000022541
      8        1          -0.000044557   -0.000043473    0.000251042
      9        1           0.000068104    0.000048338   -0.000324258
     10        1          -0.000106557   -0.000218237   -0.000111259
     11        8          -0.000059838    0.000878962    0.000799848
     12        8          -0.000254149   -0.000264647    0.000458597
     13        1           0.000507529    0.000143806   -0.001513513
     14        1          -0.000329590   -0.000004149    0.000508020
 -------------------------------------------------------------------
 Cartesian Forces:  Max     0.001513513 RMS     0.000403457

 GradGradGradGradGradGradGradGradGradGradGradGradGradGradGradGradGradGrad
 Berny optimization.
 Using GEDIIS/GDIIS optimizer.
 FormGI is forming the generalized inverse of G from B-inverse, IUseBI=4.
 Internal  Forces:  Max     0.000710558 RMS     0.000195807
 Search for a local minimum.
 Step number   3 out of a maximum of   82
 All quantities printed in internal units (Hartrees-Bohrs-Radians)
 Mixed Optimization -- En-DIIS/RFO-DIIS
 Swapping is turned off.
 Update second derivatives using D2CorX and points    1    2    3
 DE= -6.84D-05 DEPred=-4.55D-05 R= 1.50D+00
 TightC=F SS=  1.41D+00  RLast= 1.33D-01 DXNew= 8.4853D-01 3.9811D-01
 Trust test= 1.50D+00 RLast= 1.33D-01 DXMaxT set to 5.05D-01
 ITU=  1  1  0
     Eigenvalues ---    0.00188   0.00397   0.01009   0.01101   0.02588
     Eigenvalues ---    0.04028   0.04240   0.04681   0.04748   0.04766
     Eigenvalues ---    0.04927   0.05332   0.06014   0.06287   0.07652
     Eigenvalues ---    0.07776   0.08227   0.08528   0.15350   0.16007
     Eigenvalues ---    0.22271   0.24119   0.25135   0.26104   0.26688
     Eigenvalues ---    0.29050   0.29330   0.34908   0.35080   0.35190
     Eigenvalues ---    0.35350   0.35491   0.36514   0.54166   0.56299
     Eigenvalues ---    1.03521
 En-DIIS/RFO-DIIS IScMMF=        0 using points:     3    2
 RFO step:  Lambda=-9.29718079D-06.
 DidBck=F Rises=F RFO-DIIS coefs:    1.61599   -0.61599
 Iteration  1 RMS(Cart)=  0.01443820 RMS(Int)=  0.00024709
 Iteration  2 RMS(Cart)=  0.00053644 RMS(Int)=  0.00001299
 Iteration  3 RMS(Cart)=  0.00000042 RMS(Int)=  0.00001299
 Variable       Old X    -DE/DX   Delta X   Delta X   Delta X     New X
                                 (Linear)    (Quad)   (Total)
    R1        2.94743  -0.00025   0.00073  -0.00063   0.00010   2.94753
    R2        2.88441  -0.00016  -0.00007  -0.00027  -0.00034   2.88407
    R3        2.06368  -0.00025   0.00058  -0.00059   0.00000   2.06368
    R4        2.05862  -0.00011   0.00034   0.00008   0.00042   2.05904
    R5        2.94455  -0.00013   0.00048   0.00023   0.00072   2.94527
    R6        2.05336  -0.00015   0.00021  -0.00010   0.00011   2.05347
    R7        2.05595  -0.00024   0.00033  -0.00055  -0.00023   2.05573
    R8        2.88261  -0.00030  -0.00007  -0.00079  -0.00086   2.88175
    R9        2.06394  -0.00028   0.00063  -0.00080  -0.00017   2.06377
   R10        2.05722  -0.00011   0.00111  -0.00003   0.00108   2.05830
   R11        2.27431  -0.00060  -0.00074  -0.00069  -0.00143   2.27288
   R12        3.68416  -0.00015  -0.00041  -0.00268  -0.00309   3.68107
   R13        1.83640  -0.00071   0.00008  -0.00083  -0.00075   1.83565
   R14        1.81623  -0.00051   0.00028  -0.00057  -0.00029   1.81594
    A1        1.53030  -0.00004  -0.00065   0.00152   0.00081   1.53111
    A2        1.98278   0.00012   0.00213   0.00181   0.00394   1.98672
    A3        2.07105  -0.00010  -0.00103  -0.00198  -0.00300   2.06805
    A4        1.94073   0.00010   0.00180   0.00246   0.00426   1.94499
    A5        2.02051  -0.00004  -0.00129  -0.00196  -0.00323   2.01727
    A6        1.89664  -0.00003  -0.00068  -0.00111  -0.00179   1.89484
    A7        1.57459   0.00000   0.00027   0.00082   0.00104   1.57563
    A8        2.02026  -0.00004  -0.00089  -0.00158  -0.00245   2.01780
    A9        1.96385   0.00000   0.00147   0.00055   0.00202   1.96587
   A10        2.02197  -0.00001  -0.00157  -0.00062  -0.00217   2.01980
   A11        1.96445   0.00002   0.00111   0.00118   0.00230   1.96674
   A12        1.90293   0.00002  -0.00021  -0.00016  -0.00037   1.90256
   A13        1.53185  -0.00003  -0.00057   0.00141   0.00078   1.53262
   A14        1.98431   0.00009   0.00176   0.00210   0.00387   1.98817
   A15        2.08591  -0.00006  -0.00214  -0.00196  -0.00410   2.08181
   A16        1.93784   0.00009   0.00189   0.00230   0.00419   1.94204
   A17        2.01576  -0.00009  -0.00118  -0.00307  -0.00424   2.01152
   A18        1.88764   0.00000   0.00035  -0.00031   0.00004   1.88768
   A19        1.61858   0.00004   0.00076   0.00110   0.00182   1.62040
   A20        2.32617   0.00046   0.00221   0.00187   0.00410   2.33028
   A21        2.33513  -0.00049  -0.00278  -0.00314  -0.00591   2.32922
   A22        1.84583   0.00007   0.00146   0.00497   0.00644   1.85227
   A23        1.84008  -0.00027  -0.00004  -0.00112  -0.00116   1.83892
   A24        2.78675   0.00037   0.00157   0.00344   0.00501   2.79176
    D1       -0.16468  -0.00005  -0.00054   0.01426   0.01372  -0.15096
    D2       -2.24291  -0.00003   0.00135   0.01494   0.01629  -2.22662
    D3        1.83604  -0.00002   0.00109   0.01604   0.01712   1.85316
    D4        1.79287   0.00005   0.00143   0.01790   0.01932   1.81219
    D5       -0.28536   0.00008   0.00331   0.01858   0.02190  -0.26347
    D6       -2.48959   0.00008   0.00305   0.01968   0.02273  -2.46687
    D7       -2.22893   0.00004   0.00162   0.01612   0.01774  -2.21119
    D8        1.97603   0.00006   0.00350   0.01680   0.02031   1.99634
    D9       -0.22821   0.00007   0.00324   0.01790   0.02114  -0.20707
   D10        0.16844   0.00006   0.00059  -0.01452  -0.01394   0.15451
   D11       -2.89217   0.00010  -0.00150  -0.01223  -0.01374  -2.90591
   D12       -1.82934  -0.00007  -0.00169  -0.01742  -0.01911  -1.84844
   D13        1.39323  -0.00004  -0.00377  -0.01513  -0.01891   1.37433
   D14        2.27847  -0.00008  -0.00126  -0.01642  -0.01768   2.26079
   D15       -0.78214  -0.00005  -0.00334  -0.01413  -0.01748  -0.79963
   D16        0.16477   0.00006   0.00054  -0.01423  -0.01370   0.15107
   D17       -1.79052  -0.00004  -0.00151  -0.01770  -0.01921  -1.80973
   D18        2.22817  -0.00008  -0.00177  -0.01748  -0.01925   2.20892
   D19        2.24151   0.00001  -0.00076  -0.01575  -0.01651   2.22500
   D20        0.28622  -0.00008  -0.00281  -0.01922  -0.02203   0.26419
   D21       -1.97828  -0.00012  -0.00306  -0.01900  -0.02207  -2.00035
   D22       -1.83541   0.00005  -0.00141  -0.01544  -0.01685  -1.85226
   D23        2.49249  -0.00005  -0.00346  -0.01891  -0.02237   2.47012
   D24        0.22799  -0.00009  -0.00372  -0.01869  -0.02241   0.20558
   D25       -0.16860  -0.00006  -0.00060   0.01458   0.01398  -0.15462
   D26        2.89132  -0.00002   0.00191   0.01266   0.01456   2.90588
   D27        1.83107   0.00005   0.00132   0.01773   0.01905   1.85012
   D28       -1.39219   0.00009   0.00383   0.01581   0.01963  -1.37257
   D29       -2.29517   0.00005   0.00244   0.01682   0.01927  -2.27591
   D30        0.76475   0.00009   0.00495   0.01490   0.01984   0.78459
   D31        2.97012  -0.00014  -0.00050  -0.00751  -0.00801   2.96211
   D32       -0.05931  -0.00015  -0.00371  -0.00467  -0.00838  -0.06769
   D33       -0.43279   0.00007   0.07795   0.02888   0.10683  -0.32597
   D34       -2.27170  -0.00051  -0.01881  -0.06874  -0.08755  -2.35925
         Item               Value     Threshold  Converged?
 Maximum Force            0.000711     0.000450     NO 
 RMS     Force            0.000196     0.000300     YES
 Maximum Displacement     0.055033     0.001800     NO 
 RMS     Displacement     0.014515     0.001200     NO 
 Predicted change in Energy=-4.411248D-05
 GradGradGradGradGradGradGradGradGradGradGradGradGradGradGradGradGradGrad

                          Input orientation:                          
 ---------------------------------------------------------------------
 Center     Atomic      Atomic             Coordinates (Angstroms)
 Number     Number       Type             X           Y           Z
 ---------------------------------------------------------------------
      1          6           0       -1.784191   -0.649473   -0.054454
      2          6           0       -1.828925    0.905562   -0.167278
      3          6           0       -0.320633    0.984418    0.217402
      4          6           0       -0.269426   -0.534525    0.092203
      5          1           0       -2.244911   -1.039262    0.855700
      6          1           0       -2.131347   -1.242158   -0.900284
      7          1           0       -2.515310    1.406132    0.510300
      8          1           0       -2.021422    1.246344   -1.182274
      9          1           0       -0.142332    1.303351    1.246564
     10          1           0        0.366561    1.527444   -0.430101
     11          8           0        0.630932   -1.329902    0.034283
     12          8           0        2.872342    0.473513   -0.096117
     13          1           0        2.274874   -0.285278    0.008070
     14          1           0        3.628812    0.136812   -0.583783
 ---------------------------------------------------------------------
                    Distance matrix (angstroms):
                    1          2          3          4          5
     1  C    0.000000
     2  C    1.559764   0.000000
     3  C    2.210318   1.558570   0.000000
     4  C    1.526183   2.138509   1.524954   0.000000
     5  H    1.092053   2.236486   2.864533   2.177207   0.000000
     6  H    1.089597   2.289423   3.079861   2.225427   1.771311
     7  H    2.253662   1.086649   2.253938   2.997490   2.484425
     8  H    2.218643   1.087844   2.218193   2.804510   3.070387
     9  H    2.863890   2.236466   1.092100   2.174049   3.171979
    10  H    3.083150   2.296948   1.089208   2.220134   3.880857
    11  O    2.510713   3.329989   2.509001   1.202757   3.004941
    12  O    4.790213   4.721615   3.248756   3.304892   5.420399
    13  H    4.075850   4.276682   2.896999   2.557863   4.659981
    14  H    5.495365   5.527327   4.118064   4.012968   6.160835
                    6          7          8          9         10
     6  H    0.000000
     7  H    3.024998   0.000000
     8  H    2.506839   1.770385   0.000000
     9  H    3.878756   2.486699   3.071397   0.000000
    10  H    3.759164   3.033851   2.519374   1.766464   0.000000
    11  O    2.917414   4.196583   3.892562   3.000263   2.906883
    12  O    5.350432   5.501301   5.072074   3.402893   2.738842
    13  H    4.599512   5.104797   4.713909   3.146504   2.668260
    14  H    5.931371   6.368549   5.789162   4.351150   3.549613
                   11         12         13         14
    11  O    0.000000
    12  O    2.879797   0.000000
    13  H    1.947940   0.971384   0.000000
    14  H    3.394192   0.960953   1.536750   0.000000
 Stoichiometry    C4H8O2
 Framework group  C1[X(C4H8O2)]
 Deg. of freedom    36
 Full point group                 C1      NOp   1
 Largest Abelian subgroup         C1      NOp   1
 Largest concise Abelian subgroup C1      NOp   1
                         Standard orientation:                         
 ---------------------------------------------------------------------
 Center     Atomic      Atomic             Coordinates (Angstroms)
 Number     Number       Type             X           Y           Z
 ---------------------------------------------------------------------
      1          6           0       -1.779713    0.670127    0.065801
      2          6           0       -1.833431   -0.884847    0.175489
      3          6           0       -0.329876   -0.972628   -0.225456
      4          6           0       -0.267384    0.545645   -0.097288
      5          1           0       -2.247547    1.065090   -0.838475
      6          1           0       -2.113939    1.263044    0.916662
      7          1           0       -2.530267   -1.379305   -0.495881
      8          1           0       -2.017324   -1.226789    1.191689
      9          1           0       -0.164652   -1.290259   -1.257200
     10          1           0        0.360610   -1.521674    0.413411
     11          8           0        0.638734    1.334986   -0.047141
     12          8           0        2.869541   -0.483329    0.055135
     13          1           0        2.275980    0.279593   -0.040906
     14          1           0        3.633357   -0.152740    0.535476
 ---------------------------------------------------------------------
 Rotational constants (GHZ):      6.4245792      1.9142748      1.5330970
 Standard basis: Aug-CC-pVTZ (5D, 7F)
 There are   530 symmetry adapted cartesian basis functions of A   symmetry.
 There are   460 symmetry adapted basis functions of A   symmetry.
   460 basis functions,   648 primitive gaussians,   530 cartesian basis functions
    24 alpha electrons       24 beta electrons
       nuclear repulsion energy       232.2310053826 Hartrees.
 NAtoms=   14 NActive=   14 NUniq=   14 SFac= 1.00D+00 NAtFMM=   60 NAOKFM=F Big=F
 Integral buffers will be    131072 words long.
 Raffenetti 2 integral format.
 Two-electron integral symmetry is turned on.
 Nuclear repulsion after empirical dispersion term =      232.2227743830 Hartrees.
 One-electron integrals computed using PRISM.
 NBasis=   460 RedAO= T EigKep=  3.48D-06  NBF=   460
 NBsUse=   460 1.00D-06 EigRej= -1.00D+00 NBFU=   460
 Initial guess from the checkpoint file:  "1191-95-3.chk"
 B after Tr=     0.000000    0.000000    0.000000
         Rot=    1.000000   -0.000565    0.000407   -0.000184 Ang=  -0.08 deg.
 ExpMin= 2.53D-02 ExpMax= 1.53D+04 ExpMxC= 5.22D+02 IAcc=3 IRadAn=         5 AccDes= 0.00D+00
 Harris functional with IExCor=  402 and IRadAn=       5 diagonalized for initial guess.
 HarFok:  IExCor=  402 AccDes= 0.00D+00 IRadAn=         5 IDoV= 1 UseB2=F ITyADJ=14
[...]
     Eigenvalues ---    0.25856   0.27424   0.33151   0.33321   0.33772
     Eigenvalues ---    0.33886   0.34243   0.34496   0.49843   0.53809
     Eigenvalues ---    0.85400
 Angle between quadratic step and forces=  78.37 degrees.
 Linear search not attempted -- first point.
 Iteration  1 RMS(Cart)=  0.00079009 RMS(Int)=  0.00000034
 Iteration  2 RMS(Cart)=  0.00000037 RMS(Int)=  0.00000004
 Variable       Old X    -DE/DX   Delta X   Delta X   Delta X     New X
                                 (Linear)    (Quad)   (Total)
    R1        2.94650   0.00000   0.00000   0.00002   0.00002   2.94652
    R2        2.88418   0.00001   0.00000   0.00007   0.00007   2.88424
    R3        2.06203   0.00000   0.00000   0.00000   0.00000   2.06203
    R4        2.05960   0.00000   0.00000  -0.00001  -0.00001   2.05959
    R5        2.94396   0.00000   0.00000  -0.00004  -0.00004   2.94392
    R6        2.05343   0.00000   0.00000   0.00000   0.00000   2.05343
    R7        2.05462   0.00000   0.00000  -0.00001  -0.00001   2.05462
    R8        2.88153   0.00000   0.00000   0.00002   0.00002   2.88155
    R9        2.06133   0.00000   0.00000  -0.00003  -0.00003   2.06130
   R10        2.05805   0.00000   0.00000   0.00002   0.00002   2.05807
   R11        2.27385  -0.00001   0.00000  -0.00002  -0.00002   2.27384
   R12        3.65461   0.00001   0.00000   0.00077   0.00077   3.65538
   R13        1.83589   0.00000   0.00000  -0.00003  -0.00003   1.83587
   R14        1.81513   0.00000   0.00000   0.00000   0.00000   1.81513
    A1        1.53627   0.00000   0.00000   0.00003   0.00003   1.53630
    A2        2.00498   0.00000   0.00000   0.00008   0.00008   2.00506
    A3        2.05236   0.00000   0.00000  -0.00012  -0.00012   2.05224
    A4        1.95819   0.00000   0.00000  -0.00004  -0.00004   1.95815
    A5        2.00084   0.00000   0.00000  -0.00003  -0.00003   2.00081
    A6        1.89257   0.00000   0.00000   0.00007   0.00007   1.89263
    A7        1.57811   0.00000   0.00000   0.00004   0.00004   1.57815
    A8        2.00696   0.00000   0.00000  -0.00016  -0.00016   2.00680
    A9        1.97622   0.00000   0.00000   0.00013   0.00013   1.97635
   A10        2.00963   0.00000   0.00000  -0.00009  -0.00009   2.00954
   A11        1.97795   0.00000   0.00000   0.00011   0.00011   1.97806
   A12        1.90084   0.00000   0.00000  -0.00002  -0.00002   1.90082
   A13        1.53799   0.00000   0.00000   0.00007   0.00007   1.53805
   A14        2.01115   0.00000   0.00000   0.00038   0.00038   2.01154
   A15        2.06474   0.00000   0.00000  -0.00033  -0.00033   2.06441
   A16        1.95580   0.00000   0.00000   0.00028   0.00028   1.95608
   A17        1.99859   0.00000   0.00000  -0.00032  -0.00032   1.99828
   A18        1.87957   0.00000   0.00000  -0.00005  -0.00005   1.87952
   A19        1.62220   0.00000   0.00000   0.00000   0.00000   1.62220
   A20        2.32791   0.00000   0.00000  -0.00001  -0.00001   2.32790
   A21        2.33217   0.00000   0.00000   0.00003   0.00003   2.33219
   A22        1.83656   0.00000   0.00000  -0.00008  -0.00008   1.83647
   A23        1.84455   0.00000   0.00000  -0.00001  -0.00001   1.84454
   A24        2.76183   0.00000   0.00000  -0.00036  -0.00036   2.76147
    D1       -0.09175   0.00000   0.00000   0.00079   0.00079  -0.09096
    D2       -2.15432   0.00000   0.00000   0.00091   0.00091  -2.15341
    D3        1.92806   0.00000   0.00000   0.00097   0.00097   1.92903
    D4        1.89127   0.00000   0.00000   0.00078   0.00078   1.89205
    D5       -0.17130   0.00000   0.00000   0.00090   0.00090  -0.17040
    D6       -2.37211   0.00000   0.00000   0.00095   0.00095  -2.37115
    D7       -2.13227   0.00000   0.00000   0.00084   0.00084  -2.13143
    D8        2.08835   0.00000   0.00000   0.00096   0.00096   2.08930
    D9       -0.11246   0.00000   0.00000   0.00101   0.00101  -0.11145
   D10        0.09387   0.00000   0.00000  -0.00081  -0.00081   0.09305
   D11       -3.00504   0.00000   0.00000  -0.00134  -0.00134  -3.00638
   D12       -1.93310   0.00000   0.00000  -0.00090  -0.00090  -1.93400
   D13        1.25118   0.00000   0.00000  -0.00143  -0.00143   1.24975
   D14        2.18138   0.00000   0.00000  -0.00094  -0.00094   2.18044
   D15       -0.91753   0.00000   0.00000  -0.00146  -0.00146  -0.91899
   D16        0.09183   0.00000   0.00000  -0.00079  -0.00079   0.09104
   D17       -1.89040   0.00000   0.00000  -0.00120  -0.00120  -1.89160
   D18        2.13362   0.00000   0.00000  -0.00120  -0.00120   2.13242
   D19        2.15206   0.00000   0.00000  -0.00097  -0.00097   2.15110
   D20        0.16984   0.00000   0.00000  -0.00138  -0.00138   0.16845
   D21       -2.08933   0.00000   0.00000  -0.00138  -0.00138  -2.09071
   D22       -1.92644   0.00000   0.00000  -0.00098  -0.00098  -1.92742
   D23        2.37452   0.00000   0.00000  -0.00139  -0.00139   2.37313
   D24        0.11535   0.00000   0.00000  -0.00138  -0.00138   0.11397
   D25       -0.09394   0.00000   0.00000   0.00081   0.00081  -0.09313
   D26        3.00479   0.00000   0.00000   0.00134   0.00134   3.00613
   D27        1.94012   0.00000   0.00000   0.00131   0.00131   1.94143
   D28       -1.24433   0.00000   0.00000   0.00184   0.00184  -1.24249
   D29       -2.19572   0.00000   0.00000   0.00122   0.00122  -2.19449
   D30        0.90302   0.00000   0.00000   0.00175   0.00175   0.90477
   D31        3.06461   0.00000   0.00000   0.00010   0.00010   3.06471
   D32       -0.01808   0.00000   0.00000  -0.00063  -0.00063  -0.01871
   D33       -0.04933   0.00000   0.00000  -0.00003  -0.00003  -0.04936
   D34       -3.11703   0.00000   0.00000   0.00087   0.00087  -3.11616
         Item               Value     Threshold  Converged?
 Maximum Force            0.000009     0.000450     YES
 RMS     Force            0.000003     0.000300     YES
 Maximum Displacement     0.002621     0.001800     NO 
 RMS     Displacement     0.000790     0.001200     YES
 Predicted change in Energy=-1.453052D-08
 GradGradGradGradGradGradGradGradGradGradGradGradGradGradGradGradGradGrad

 1\1\GINC-NODE103\Freq\RB3LYP\Aug-CC-pVTZ\C4H8O2\KAESER\30-Sep-2021\0\\
 #N Geom=AllCheck Guess=TCheck SCRF=Check GenChk RB3LYP/Aug-CC-pVTZ Fre
 q\\Title Card Required\\0,1\C,-1.7906026818,-0.649137082,-0.0415261173
 \C,-1.8488903339,0.9079153141,-0.0994679491\C,-0.3034308646,0.98391521
 38,0.0815307773\C,-0.2688409435,-0.5380573113,-0.0052988255\H,-2.19360
 57548,-1.0899056157,0.8717027727\H,-2.185738518,-1.2011655756,-0.89417
 06183\H,-2.4298450053,1.3752846368,0.6909856066\H,-2.1892279287,1.2888
 797169,-1.0592429255\H,0.0336038221,1.346555871,1.053519097\H,0.281512
 355,1.4934893643,-0.6828325059\O,0.6205664454,-1.3457755505,-0.0716893
 562\O,2.8182287534,0.482859946,-0.0886409259\H,2.2511114679,-0.3059371
 478,-0.084733146\H,3.7201821867,0.15405622,-0.119901884\\Version=ES64L
 -G09RevD.01\State=1-A\HF=-307.8015375\RMSD=4.865e-09\RMSF=8.182e-06\Ze
 roPoint=0.1144267\Thermal=0.1228255\Dipole=-0.9176872,0.1464722,0.0560
 783\DipoleDeriv=-0.4370337,-0.0270783,0.0185686,-0.0906003,0.0078566,0
 .0119882,0.0069336,-0.0017426,0.1418607,0.0465696,-0.0503966,-0.023225
 5,-0.0441129,0.063023,0.0102187,-0.017739,0.0055751,0.1333975,0.024702
 6,-0.0611854,-0.0160584,0.0104992,-0.4245674,-0.0586104,0.0097507,-0.0
 470407,0.1174409,1.3636954,-0.3279633,-0.0201669,-0.4548906,1.1029182,
 0.0681017,-0.0530498,0.0856993,0.1316126,0.046228,-0.0100617,0.0176525
 ,0.0037539,0.0246988,0.0394995,0.0492192,0.0724151,-0.0268124,0.034957
 8,-0.0150819,-0.0205452,-0.0023518,-0.0029011,-0.0476862,-0.0643461,-0
 .0815287,-0.0118426,-0.0344194,0.0530271,0.0498424,0.0518463,-0.007504
 7,-0.0413426,0.0883838,-0.0727162,-0.0321522,0.0041722,0.0264911,-0.03
 56832,0.0305776,0.004693,0.0425467,-0.0758289,0.0731992,-0.078894,0.04
 79052,0.0136302,-0.0323113,0.0011179,0.0620455,-0.0064097,-0.0568198,-
 0.0349362,-0.0236158,0.0330691,-0.0012209,0.0361028,-0.020506,0.045022
 9,0.0132753,0.0571561,0.0515114,0.0195606,-1.2304137,0.3624837,0.03002
 88,0.41676,-0.8688881,-0.0295639,0.0602524,-0.0505691,-0.3104136,-0.76
 67325,-0.109871,0.001067,-0.2594227,-0.4501458,0.0104005,-0.0008405,0.
 0063948,-0.6237066,0.6787741,0.0824282,-0.0103395,0.2668597,0.218496,-
 0.0082197,-0.0068799,-0.0026672,0.2412361,0.1885254,0.0647988,0.005067
 9,0.0904697,0.2252533,-0.004198,0.0038083,-0.0035943,0.3223289\Polar=7
 1.5094719,-1.4244506,61.8728283,0.1252869,0.6680989,48.1985341\PG=C01 
 [X(C4H8O2)]\NImag=0\\0.42090753,0.10890077,0.46336844,0.00257597,0.018
 15495,0.54851208,-0.04939017,-0.00087981,0.00175081,0.45825076,0.00759
 685,-0.14856395,0.00442518,-0.12486772,0.43135331,0.00138593,0.0011029
 2,-0.08363660,-0.02018985,-0.00356597,0.61187649,-0.03595498,-0.040462
 04,-0.00918596,-0.14969847,-0.01076167,-0.00676807,0.45486247,-0.03481
 101,-0.04344760,-0.00579444,-0.00080840,-0.05042758,0.00183087,0.11265
 865,0.44400251,-0.00428361,-0.00092328,0.04493610,-0.00927616,-0.00020
 572,-0.08568828,-0.01648215,-0.00476109,0.54423941,-0.14610831,-0.0008
 4059,-0.00643521,-0.05367546,0.04958660,-0.00138205,-0.06012864,-0.037
 48849,0.00460621,0.75140945,-0.04502987,-0.06198871,-0.00580591,0.0489
 8407,-0.04473411,0.00044855,0.00830286,-0.15020825,0.00272923,-0.29743
 730,0.68587138,-0.00302593,0.00097018,-0.08751121,-0.00600365,0.005002
 80,0.00764019,0.00196230,-0.00525965,-0.08773469,-0.02107641,0.0331216
 6,0.22818111,-0.08089582,-0.03903031,0.09132101,0.00184109,0.00294582,
 -0.00870586,-0.00197259,-0.00152940,-0.00730691,-0.00634516,-0.0117656
 2,0.03141223,0.08127037,-0.03654629,-0.08238377,0.08908430,-0.00998673
 ,-0.00900250,0.02536499,-0.00041757,-0.00097258,-0.00202188,-0.0019091
 1,-0.00181928,-0.00650794,0.04308449,0.08994586,0.08211314,0.08780515,
 -0.22980989,-0.00181845,-0.00151133,0.00048457,0.00059252,-0.00091821,
 -0.00224105,-0.00012702,-0.00028125,0.00128348,-0.09178687,-0.09507375
 ,0.24799427,-0.07993239,-0.04482882,-0.08406229,0.00078031,0.00254527,
 0.00808648,-0.00445028,-0.00222896,0.00640808,-0.00351568,-0.01680030,
 -0.02884975,0.00631680,0.00648808,0.01059223,0.07949409,-0.04310185,-0
 .11066743,-0.10630938,-0.00836263,-0.00762785,-0.02232873,-0.00188604,
 -0.00162070,0.00164582,-0.00400568,-0.00243468,0.00588849,0.00499316,0
 .00684543,0.00974370,0.05331576,0.11685163,-0.07764806,-0.10525991,-0.
 20985279,0.00278730,0.00296743,0.00367547,-0.00005276,0.00117988,-0.00
 120362,0.00234631,0.00021946,-0.00004928,-0.01094239,-0.01304729,-0.02
 050409,0.08439498,0.11342653,0.22554693,0.00204462,-0.00121924,-0.0048
 8474,-0.12133092,0.06058475,0.10488836,-0.01283192,0.01078214,0.021414
 51,-0.00462002,-0.00063306,-0.00046969,0.00051767,0.00085822,0.0000719
 1,0.00023225,-0.00128348,-0.00012124,0.13013341,0.01410372,-0.01065098
 ,-0.02199990,0.06040254,-0.09436561,-0.08359291,-0.00257030,0.00236895
 ,0.00670771,-0.00061246,-0.00476325,0.00005493,-0.00120848,0.00233632,
 0.00004568,0.00203909,-0.00342902,0.00028161,-0.06654351,0.10107643,-0
 .00271588,0.00238647,0.00223688,0.10598474,-0.08479674,-0.19763915,-0.
 00387277,0.00326045,0.00448865,-0.00143901,0.00099321,-0.00028622,0.00
 013765,-0.00015813,0.00132261,0.00009621,0.00012510,0.00053262,-0.1130
 2123,0.09041483,0.20770590,0.00055101,-0.00122607,0.00473260,-0.070818
 05,0.03006868,-0.07105420,-0.00851359,0.00956031,-0.02720122,-0.003088
 32,-0.00119821,-0.00096983,0.00030020,-0.00151457,0.00011373,0.0006079
 6,0.00067408,-0.00021828,0.00641603,-0.00677257,0.01537063,0.07664566,
 0.00831255,-0.01016457,0.02753874,0.03002995,-0.07717602,0.08081880,-0
 .00158626,0.00189563,-0.00733785,-0.00131885,-0.00329133,0.00052407,0.
 00237986,-0.00434247,0.00016073,-0.00128921,0.00214647,-0.00026921,-0.
 00506001,0.00585025,-0.01243045,-0.03182258,0.08383960,0.00123069,-0.0
 0107605,0.00179472,-0.07192405,0.08183206,-0.26278498,0.00012115,-0.00
 038158,-0.00083134,0.00018890,-0.00056914,-0.00018344,-0.00016158,-0.0
 0024169,0.00085164,-0.00011762,0.00032326,0.00117349,-0.00732288,0.008
 20190,-0.02014267,0.07846349,-0.08850081,0.27824707,-0.00091397,-0.000
 39748,0.00113529,-0.00648169,-0.00871702,-0.02716780,-0.06471989,-0.02
 310291,-0.07164800,-0.00115736,-0.00304520,0.00934177,0.00010755,-0.00
 104465,-0.00025289,-0.00019916,-0.00022861,-0.00002429,0.00235783,0.00
 097722,0.00030410,-0.00428953,-0.00188092,-0.00032425,0.07033130,-0.00
 209611,-0.00274410,0.00724343,0.00147736,0.00043582,0.00676540,-0.0251
 7576,-0.07265349,-0.08838360,-0.00875417,-0.00547537,-0.03235906,-0.00
 196125,-0.00020545,-0.00040664,0.00068598,-0.00025930,-0.00015798,-0.0
 0103348,0.00050265,-0.00025488,0.00204768,0.00035864,0.00032482,0.0296
 4948,0.07405229,0.00095296,-0.00047694,-0.00165582,0.00097283,0.001547
 21,-0.00035507,-0.07117725,-0.07925332,-0.25575074,-0.00031053,-0.0006
 4975,-0.00075340,0.00025509,0.00023275,0.00023260,-0.00034793,-0.00029
 386,-0.00000901,-0.00011700,-0.00009639,0.00128164,-0.00031280,-0.0002
 8252,0.00083221,0.07705257,0.08812463,0.27590920,-0.00095817,-0.001302
 24,-0.00058650,-0.00845623,-0.01026338,0.02046719,-0.12053775,-0.06157
 808,0.10278154,0.00087256,-0.00396401,-0.00919038,-0.00035388,-0.00027
 198,0.00019006,0.00031457,-0.00114892,0.00039178,-0.00327028,-0.001524
 22,-0.00054352,0.00218159,0.00076220,-0.00014817,0.00520631,0.00420391
 ,-0.00636130,0.12573170,-0.00133378,-0.00412262,-0.00674311,0.00274217
 ,0.00105926,-0.00663940,-0.06338703,-0.10418597,0.09790792,-0.01837670
 ,-0.00806778,0.02649444,0.00063079,-0.00020146,0.00039752,-0.00203405,
 -0.00004952,0.00018844,0.00186914,0.00030664,0.00000136,-0.00122719,0.
 00053651,-0.00001581,0.00578030,0.00719138,-0.00874219,0.07353568,0.10
 712502,-0.00131335,-0.00056825,-0.00216041,-0.00349998,-0.00444774,0.0
 0479319,0.10127402,0.09194702,-0.17809952,-0.00200157,-0.00316372,0.00
 122775,0.00019444,0.00000476,0.00006876,-0.00037376,-0.00059735,0.0001
 3017,-0.00053124,-0.00008832,0.00046830,0.00031749,0.00028420,0.001164
 33,0.01441805,0.01475182,-0.02028048,-0.10916173,-0.09884131,0.1923693
 1,-0.03047702,0.02135107,0.00370615,-0.00143345,0.00152257,0.00013835,
 0.00637891,0.02837320,0.00177471,-0.46554312,0.31841007,0.02629601,-0.
 00088927,0.00135434,0.00030140,0.00026164,0.00118662,-0.00092977,0.000
 45565,0.00182939,-0.00030939,0.00001308,0.00155258,0.00000971,-0.00071
 497,0.00104061,-0.00002551,-0.00091989,0.00217685,-0.00035174,0.495193
 38,0.02351051,0.01138661,0.00026239,0.00127495,-0.00111967,-0.00021307
 ,0.02430757,-0.02387173,-0.00531809,0.32016309,-0.40539852,-0.02802816
 ,0.00140163,-0.00017201,0.00003041,0.00206887,0.00027980,0.00047281,0.
 00174676,0.00080428,0.00045947,0.00146369,0.00038976,0.00011138,0.0019
 1026,-0.00088710,-0.00015244,0.00135032,0.00090961,0.00080075,-0.37296
 626,0.42490271,0.00080423,-0.00206580,0.01635158,0.00124163,-0.0012589
 6,0.00155004,0.00338679,-0.00188003,0.01869838,0.02531190,-0.02703998,
 -0.06259812,-0.00425381,0.00235113,0.00032649,0.00403563,-0.00161502,0
 .00056669,0.00012491,0.00008852,0.00003466,0.00072229,-0.00052209,-0.0
 0012797,-0.00273848,0.00455895,0.00042871,0.00213555,-0.00412365,0.000
 39685,-0.03040884,0.03156457,0.02724774,-0.00095324,0.00031013,-0.0000
 8857,0.00004576,-0.00004790,0.00032931,-0.00156270,0.00122865,-0.00035
 128,0.00539258,-0.00391549,-0.00039243,-0.00007800,0.00003194,0.000047
 61,-0.00009954,-0.00000442,-0.00007388,-0.00032974,0.00006132,0.000049
 77,-0.00017087,0.00005614,-0.00012591,0.00013954,-0.00004270,-0.000433
 69,-0.00009103,-0.00057909,0.00075693,-0.01228665,-0.00556867,0.000438
 32,0.65493423,-0.00076110,0.00037241,0.00012181,-0.00020791,0.00002471
 ,-0.00007229,0.00056845,0.00126664,0.00031947,0.00276138,-0.00641015,-
 0.00050821,-0.00010026,0.00007557,0.00000542,-0.00005428,0.00010657,-0
 .00003107,0.00000584,0.00012121,0.00001052,-0.00001535,0.00009023,-0.0
 0002486,-0.00024457,0.00002762,0.00020469,-0.00023738,0.00007233,-0.00
 032234,-0.00976041,0.00161238,0.00044279,0.04934493,0.44089107,0.00004
 768,0.00001008,-0.00067149,-0.00005713,-0.00000725,0.00029514,0.000248
 02,0.00021577,-0.00029181,-0.00016680,-0.00015913,-0.00050704,0.000072
 58,-0.00001549,0.00003201,-0.00005099,0.00002684,0.00001792,-0.0000707
 8,-0.00000586,0.00000430,0.00014885,0.00000419,0.00003459,-0.00037586,
 0.00027833,0.00026762,0.00016111,-0.00038538,-0.00014772,0.00022533,0.
 00014028,0.00335840,-0.01796549,0.00544392,0.00519449,0.00191604,-0.00
 032334,0.00005789,0.00018438,-0.00024234,-0.00009780,-0.00078353,-0.00
 121350,-0.00028531,-0.01339173,0.00782335,0.00095806,0.00017216,-0.000
 10899,-0.00003759,0.00019462,-0.00012466,0.00008339,0.00023893,-0.0001
 7041,-0.00002741,0.00016777,-0.00012868,0.00010509,0.00032452,-0.00009
 938,-0.00008876,0.00041285,0.00019350,0.00010140,0.00986275,0.00041275
 ,-0.00077601,-0.18286148,-0.16926942,0.00242163,0.20972112,0.00120358,
 -0.00043913,-0.00018659,0.00019930,0.00002361,0.00015306,0.00010802,-0
 .00213793,-0.00054938,-0.00243855,0.00950928,0.00067413,0.00015604,-0.
 00011235,0.00000297,0.00009066,-0.00016016,0.00003198,-0.00011254,-0.0
 0017921,-0.00000349,-0.00004806,-0.00013953,0.00000436,0.00045729,-0.0
 0035643,-0.00027895,0.00059773,-0.00070566,0.00050078,0.00592826,-0.00
 740280,-0.00055087,-0.22478289,-0.33651501,0.00133603,0.20056118,0.326
 65970,-0.00012623,-0.00005681,0.00149218,0.00004548,0.00001984,-0.0003
 8269,0.00002614,-0.00021459,-0.00043260,0.00050317,0.00011941,0.001343
 10,-0.00024614,0.00001329,-0.00003767,0.00020290,-0.00002083,-0.000021
 57,0.00006125,-0.00000030,0.00000021,-0.00013180,-0.00000032,-0.000022
 39,0.00031946,-0.00054191,-0.00025242,-0.00022501,0.00065950,0.0000274
 0,-0.00043766,-0.00014057,-0.00630561,0.00153261,-0.00032857,-0.006522
 09,-0.00256432,-0.00079124,0.01141725,0.00016487,-0.00005202,-0.000036
 44,0.00018214,0.00004949,0.00006999,-0.00008704,0.00015780,-0.00015041
 ,-0.00010077,0.00026871,0.00000771,0.00000888,-0.00001718,0.00000021,-
 0.00000521,-0.00002332,0.00000691,-0.00001352,-0.00001133,-0.00001390,
 -0.00000295,-0.00000676,0.00000541,0.00000954,0.00005782,-0.00005868,-
 0.00013235,0.00000941,0.00017105,0.00009895,-0.00107547,-0.00002411,-0
 .46207886,0.12797007,0.01536186,-0.02615840,0.01807997,0.00104015,0.48
 811471,0.00005204,0.00004541,0.00000853,0.00000286,0.00012059,-0.00007
 221,0.00030112,-0.00000789,0.00019072,0.00067083,-0.00078922,-0.000067
 69,0.00000353,0.00000870,-0.00000039,0.00000191,0.00001877,-0.00000268
 ,0.00003847,0.00002137,-0.00000773,0.00001016,0.00000685,0.00001215,-0
 .00011319,0.00001285,0.00011707,-0.00015963,0.00013227,-0.00026030,-0.
 00199889,-0.00143332,0.00005043,0.18390803,-0.10173559,-0.00688233,-0.
 03731004,0.01195561,0.00128312,-0.14540719,0.09164362,0.00000246,-0.00
 000271,-0.00002534,-0.00001352,-0.00000082,0.00017167,-0.00007199,0.00
 002892,-0.00008888,-0.00001790,0.00003734,-0.00005223,0.00001056,0.000
 01495,-0.00000373,-0.00001420,-0.00001456,-0.00000293,-0.00002213,-0.0
 0001152,-0.00000773,0.00001904,0.00001252,-0.00000525,-0.00003966,0.00
 005672,0.00010496,0.00008937,-0.00015832,0.00004208,0.00001125,0.00001
 026,0.00007217,0.01627672,-0.00526129,-0.00106431,0.00014975,-0.000342
 80,-0.00030310,-0.01637975,0.00563131,0.00116263\\0.00001990,0.0000118
 5,0.00001452,-0.00000872,-0.00001037,-0.00000102,0.00000941,-0.0000017
 7,-0.00001886,-0.00001820,0.00000255,0.00000630,-0.00000579,-0.0000105
 0,-0.00000829,0.00000376,-0.00000946,-0.00000516,-0.00000252,-0.000003
 14,-0.00000264,-0.00000100,-0.00000403,-0.00000269,-0.00000814,-0.0000
 0050,0.00000447,0.00000084,0.00000385,0.00000476,0.00001520,0.00000355
 ,-0.00000479,0.00000275,0.00000761,0.00000403,-0.00000762,0.00000112,0
 .00000341,0.00000014,0.00000925,0.00000596\\\@


 IT'S WHAT YOU LEARN AFTER YOU KNOW IT ALL
 THAT COUNTS.
 Job cpu time:       0 days  4 hours  9 minutes 24.1 seconds.
 File lengths (MBytes):  RWF=    218 Int=      0 D2E=      0 Chk=     17 Scr=      1
 Normal termination of Gaussian 09 at Thu Sep 30 22:43:38 2021.
