 Entering Gaussian System, Link 0=/opt/cluster/programs/g09/g09_d.01/g09//g09
 Input=/home/kaeser/nnprojects/hydra_challenge/b3lypd3/132-64-9.com
 Output=/scratch/kaeser/132-64-9/132-64-9.out
 Initial command:
 /opt/cluster/programs/g09/g09_d.01/g09/l1.exe "/scratch/kaeser/132-64-9/Gau-188657.inp" -scrdir="/scratch/kaeser/132-64-9/"
 Entering Link 1 = /opt/cluster/programs/g09/g09_d.01/g09/l1.exe PID=    188664.
  
 Copyright (c) 1988,1990,1992,1993,1995,1998,2003,2009,2013,
            Gaussian, Inc.  All Rights Reserved.
  
 This is part of the Gaussian(R) 09 program.  It is based on
 the Gaussian(R) 03 system (copyright 2003, Gaussian, Inc.),
 the Gaussian(R) 98 system (copyright 1998, Gaussian, Inc.),
 the Gaussian(R) 94 system (copyright 1995, Gaussian, Inc.),
 the Gaussian 92(TM) system (copyright 1992, Gaussian, Inc.),
 the Gaussian 90(TM) system (copyright 1990, Gaussian, Inc.),
 the Gaussian 88(TM) system (copyright 1988, Gaussian, Inc.),
 the Gaussian 86(TM) system (copyright 1986, Carnegie Mellon
 University), and the Gaussian 82(TM) system (copyright 1983,
 Carnegie Mellon University). Gaussian is a federally registered
 trademark of Gaussian, Inc.
  
 This software contains proprietary and confidential information,
 including trade secrets, belonging to Gaussian, Inc.
  
 This software is provided under written license and may be
 used, copied, transmitted, or stored only in accord with that
 written license.
  
 The following legend is applicable only to US Government
 contracts under FAR:
  
                    RESTRICTED RIGHTS LEGEND
  
 Use, reproduction and disclosure by the US Government is
 subject to restrictions as set forth in subparagraphs (a)
 and (c) of the Commercial Computer Software - Restricted
 Rights clause in FAR 52.227-19.
  
 Gaussian, Inc.
 340 Quinnipiac St., Bldg. 40, Wallingford CT 06492
  
  
 ---------------------------------------------------------------
 Warning -- This program may not be used in any manner that
 competes with the business of Gaussian, Inc. or will provide
 assistance to any competitor of Gaussian, Inc.  The licensee
 of this program is prohibited from giving any competitor of
 Gaussian, Inc. access to this program.  By using this program,
 the user acknowledges that Gaussian, Inc. is engaged in the
 business of creating and licensing software in the field of
 computational chemistry and represents and warrants to the
 licensee that it is not a competitor of Gaussian, Inc. and that
 it will not use this program in any manner prohibited above.
 ---------------------------------------------------------------
  

 Cite this work as:
 Gaussian 09, Revision D.01,
 M. J. Frisch, G. W. Trucks, H. B. Schlegel, G. E. Scuseria, 
 M. A. Robb, J. R. Cheeseman, G. Scalmani, V. Barone, B. Mennucci, 
 G. A. Petersson, H. Nakatsuji, M. Caricato, X. Li, H. P. Hratchian, 
 A. F. Izmaylov, J. Bloino, G. Zheng, J. L. Sonnenberg, M. Hada, 
 M. Ehara, K. Toyota, R. Fukuda, J. Hasegawa, M. Ishida, T. Nakajima, 
 Y. Honda, O. Kitao, H. Nakai, T. Vreven, J. A. Montgomery, Jr., 
 J. E. Peralta, F. Ogliaro, M. Bearpark, J. J. Heyd, E. Brothers, 
 K. N. Kudin, V. N. Staroverov, T. Keith, R. Kobayashi, J. Normand, 
 K. Raghavachari, A. Rendell, J. C. Burant, S. S. Iyengar, J. Tomasi, 
 M. Cossi, N. Rega, J. M. Millam, M. Klene, J. E. Knox, J. B. Cross, 
 V. Bakken, C. Adamo, J. Jaramillo, R. Gomperts, R. E. Stratmann, 
 O. Yazyev, A. J. Austin, R. Cammi, C. Pomelli, J. W. Ochterski, 
 R. L. Martin, K. Morokuma, V. G. Zakrzewski, G. A. Voth, 
 P. Salvador, J. J. Dannenberg, S. Dapprich, A. D. Daniels, 
 O. Farkas, J. B. Foresman, J. V. Ortiz, J. Cioslowski, 
 and D. J. Fox, Gaussian, Inc., Wallingford CT, 2013.
 
 ******************************************
 Gaussian 09:  ES64L-G09RevD.01 24-Apr-2013
                30-Sep-2021 
 ******************************************
 %chk=132-64-9.chk
 %mem=8GB
 %nprocshared=8
 Will use up to    8 processors via shared memory.
 ----------------------------------------------------------------------
 # opt freq b3lyp/aug-cc-pvtz EmpiricalDispersion=GD3 geom=connectivity
 ----------------------------------------------------------------------
 1/14=-1,18=20,19=15,26=3,38=1,57=2/1,3;
 2/9=110,12=2,17=6,18=5,40=1/2;
 3/5=16,6=1,7=10,11=2,16=1,25=1,30=1,71=1,74=-5,124=31/1,2,3;
 4//1;
 5/5=2,38=5/2;
 6/7=2,8=2,9=2,10=2,28=1/1;
 7//1,2,3,16;
 1/14=-1,18=20,19=15,26=3/3(2);
 2/9=110/2;
 99//99;
 2/9=110/2;
 3/5=16,6=1,7=10,11=2,16=1,25=1,30=1,71=1,74=-5,124=31/1,2,3;
 4/5=5,16=3,69=1/1;
 5/5=2,38=5/2;
 7//1,2,3,16;
 1/14=-1,18=20,19=15,26=3/3(-5);
 2/9=110/2;
 6/7=2,8=2,9=2,10=2,19=2,28=1/1;
 99/9=1/99;
 -------------------
 Title Card Required
 -------------------
 Symbolic Z-matrix:
 Charge =  0 Multiplicity = 1
 C                    -2.52333  -2.14035   0.02624 
 C                    -3.15206  -0.89238  -0.04317 
 C                    -2.42049   0.28831  -0.08722 
 C                    -1.04588   0.15462  -0.05731 
 C                    -0.38569  -1.07591   0.01015 
 C                    -1.14066  -2.24574   0.0536 
 H                    -3.12695  -3.03411   0.05812 
 H                    -4.22982  -0.84355  -0.0646 
 H                    -2.88248   1.26134  -0.14069 
 H                    -0.6619   -3.21182   0.1061 
 C                     1.09911   0.63462  -0.05095 
 C                     2.28924   1.33465  -0.06973 
 C                     3.45438   0.57902  -0.01797 
 C                     3.41375  -0.81735   0.04904 
 C                     2.20547  -1.49863   0.06588 
 C                     1.02537  -0.76087   0.01493 
 H                     2.30785   2.41145  -0.12328 
 H                     4.40919   1.08144  -0.03073 
 H                     4.33918  -1.37066   0.08745 
 H                     2.18143  -2.57664   0.11665 
 O                    -0.1514    1.20194  -0.09495 
 O                    -1.87387   3.5829    0.05925 
 H                    -1.91022   3.66131   1.01346 
 H                    -1.13945   2.98262  -0.09769 
 
 Add virtual bond connecting atoms H24        and O21        Dist= 3.85D+00.

 GradGradGradGradGradGradGradGradGradGradGradGradGradGradGradGradGradGrad
 Berny optimization.
 Initialization pass.
                           ----------------------------
                           !    Initial Parameters    !
                           ! (Angstroms and Degrees)  !
 --------------------------                            --------------------------
 ! Name  Definition              Value          Derivative Info.                !
 --------------------------------------------------------------------------------
 ! R1    R(1,2)                  1.3991         estimate D2E/DX2                !
 ! R2    R(1,6)                  1.387          estimate D2E/DX2                !
 ! R3    R(1,7)                  1.079          estimate D2E/DX2                !
 ! R4    R(2,3)                  1.3897         estimate D2E/DX2                !
 ! R5    R(2,8)                  1.0791         estimate D2E/DX2                !
 ! R6    R(3,4)                  1.3814         estimate D2E/DX2                !
 ! R7    R(3,9)                  1.0785         estimate D2E/DX2                !
 ! R8    R(4,5)                  1.3981         estimate D2E/DX2                !
 ! R9    R(4,21)                 1.3778         estimate D2E/DX2                !
 ! R10   R(5,6)                  1.393          estimate D2E/DX2                !
 ! R11   R(5,16)                 1.4458         estimate D2E/DX2                !
 ! R12   R(6,10)                 1.0795         estimate D2E/DX2                !
 ! R13   R(11,12)                1.3809         estimate D2E/DX2                !
 ! R14   R(11,16)                1.399          estimate D2E/DX2                !
 ! R15   R(11,21)                1.3739         estimate D2E/DX2                !
 ! R16   R(12,13)                1.3897         estimate D2E/DX2                !
 ! R17   R(12,17)                1.0783         estimate D2E/DX2                !
 ! R18   R(13,14)                1.3986         estimate D2E/DX2                !
 ! R19   R(13,18)                1.079          estimate D2E/DX2                !
 ! R20   R(14,15)                1.3872         estimate D2E/DX2                !
 ! R21   R(14,19)                1.0789         estimate D2E/DX2                !
 ! R22   R(15,16)                1.3927         estimate D2E/DX2                !
 ! R23   R(15,20)                1.0795         estimate D2E/DX2                !
 ! R24   R(21,24)                2.0364         estimate D2E/DX2                !
 ! R25   R(22,23)                0.9581         estimate D2E/DX2                !
 ! R26   R(22,24)                0.9614         estimate D2E/DX2                !
 ! A1    A(2,1,6)              121.1141         estimate D2E/DX2                !
 ! A2    A(2,1,7)              119.2699         estimate D2E/DX2                !
 ! A3    A(6,1,7)              119.616          estimate D2E/DX2                !
 ! A4    A(1,2,3)              121.523          estimate D2E/DX2                !
 ! A5    A(1,2,8)              119.3523         estimate D2E/DX2                !
 ! A6    A(3,2,8)              119.1246         estimate D2E/DX2                !
 ! A7    A(2,3,4)              116.1632         estimate D2E/DX2                !
 ! A8    A(2,3,9)              122.8624         estimate D2E/DX2                !
 ! A9    A(4,3,9)              120.9743         estimate D2E/DX2                !
 ! A10   A(3,4,5)              123.7872         estimate D2E/DX2                !
 ! A11   A(3,4,21)             124.8792         estimate D2E/DX2                !
 ! A12   A(5,4,21)             111.3331         estimate D2E/DX2                !
 ! A13   A(4,5,6)              118.9955         estimate D2E/DX2                !
 ! A14   A(4,5,16)             105.6189         estimate D2E/DX2                !
 ! A15   A(6,5,16)             135.3856         estimate D2E/DX2                !
 ! A16   A(1,6,5)              118.4169         estimate D2E/DX2                !
 ! A17   A(1,6,10)             120.7369         estimate D2E/DX2                !
 ! A18   A(5,6,10)             120.8462         estimate D2E/DX2                !
 ! A19   A(12,11,16)           123.4869         estimate D2E/DX2                !
 ! A20   A(12,11,21)           125.0788         estimate D2E/DX2                !
 ! A21   A(16,11,21)           111.4343         estimate D2E/DX2                !
 ! A22   A(11,12,13)           116.5167         estimate D2E/DX2                !
 ! A23   A(11,12,17)           121.4523         estimate D2E/DX2                !
 ! A24   A(13,12,17)           122.0309         estimate D2E/DX2                !
 ! A25   A(12,13,14)           121.3537         estimate D2E/DX2                !
 ! A26   A(12,13,18)           119.2283         estimate D2E/DX2                !
 ! A27   A(14,13,18)           119.418          estimate D2E/DX2                !
 ! A28   A(13,14,15)           121.0792         estimate D2E/DX2                !
 ! A29   A(13,14,19)           119.2635         estimate D2E/DX2                !
 ! A30   A(15,14,19)           119.6573         estimate D2E/DX2                !
 ! A31   A(14,15,16)           118.52           estimate D2E/DX2                !
 ! A32   A(14,15,20)           120.6913         estimate D2E/DX2                !
 ! A33   A(16,15,20)           120.7887         estimate D2E/DX2                !
 ! A34   A(5,16,11)            105.5835         estimate D2E/DX2                !
 ! A35   A(5,16,15)            135.373          estimate D2E/DX2                !
 ! A36   A(11,16,15)           119.0435         estimate D2E/DX2                !
 ! A37   A(4,21,11)            106.0302         estimate D2E/DX2                !
 ! A38   A(4,21,24)            110.4698         estimate D2E/DX2                !
 ! A39   A(11,21,24)           143.3919         estimate D2E/DX2                !
 ! A40   A(23,22,24)           104.043          estimate D2E/DX2                !
 ! A41   A(21,24,22)           156.399          estimate D2E/DX2                !
 ! D1    D(6,1,2,3)             -0.0081         estimate D2E/DX2                !
 ! D2    D(6,1,2,8)            179.8981         estimate D2E/DX2                !
 ! D3    D(7,1,2,3)           -179.961          estimate D2E/DX2                !
 ! D4    D(7,1,2,8)             -0.0548         estimate D2E/DX2                !
 ! D5    D(2,1,6,5)             -0.0065         estimate D2E/DX2                !
 ! D6    D(2,1,6,10)          -179.932          estimate D2E/DX2                !
 ! D7    D(7,1,6,5)            179.9463         estimate D2E/DX2                !
 ! D8    D(7,1,6,10)             0.0207         estimate D2E/DX2                !
 ! D9    D(1,2,3,4)             -0.0538         estimate D2E/DX2                !
 ! D10   D(1,2,3,9)           -179.9884         estimate D2E/DX2                !
 ! D11   D(8,2,3,4)           -179.9602         estimate D2E/DX2                !
 ! D12   D(8,2,3,9)              0.1052         estimate D2E/DX2                !
 ! D13   D(2,3,4,5)              0.1369         estimate D2E/DX2                !
 ! D14   D(2,3,4,21)           179.8594         estimate D2E/DX2                !
 ! D15   D(9,3,4,5)           -179.9272         estimate D2E/DX2                !
 ! D16   D(9,3,4,21)            -0.2047         estimate D2E/DX2                !
 ! D17   D(3,4,5,6)             -0.1548         estimate D2E/DX2                !
 ! D18   D(3,4,5,16)           179.7806         estimate D2E/DX2                !
 ! D19   D(21,4,5,6)          -179.9104         estimate D2E/DX2                !
 ! D20   D(21,4,5,16)            0.025          estimate D2E/DX2                !
 ! D21   D(3,4,21,11)         -179.7552         estimate D2E/DX2                !
 ! D22   D(3,4,21,24)            3.1078         estimate D2E/DX2                !
 ! D23   D(5,4,21,11)           -0.0028         estimate D2E/DX2                !
 ! D24   D(5,4,21,24)         -177.1398         estimate D2E/DX2                !
 ! D25   D(4,5,6,1)              0.0828         estimate D2E/DX2                !
 ! D26   D(4,5,6,10)          -179.9917         estimate D2E/DX2                !
 ! D27   D(16,5,6,1)          -179.8287         estimate D2E/DX2                !
 ! D28   D(16,5,6,10)            0.0968         estimate D2E/DX2                !
 ! D29   D(4,5,16,11)           -0.0366         estimate D2E/DX2                !
 ! D30   D(4,5,16,15)         -179.9744         estimate D2E/DX2                !
 ! D31   D(6,5,16,11)          179.883          estimate D2E/DX2                !
 ! D32   D(6,5,16,15)           -0.0548         estimate D2E/DX2                !
 ! D33   D(16,11,12,13)         -0.054          estimate D2E/DX2                !
 ! D34   D(16,11,12,17)        179.8605         estimate D2E/DX2                !
 ! D35   D(21,11,12,13)       -179.9841         estimate D2E/DX2                !
 ! D36   D(21,11,12,17)         -0.0695         estimate D2E/DX2                !
 ! D37   D(12,11,16,5)        -179.9014         estimate D2E/DX2                !
 ! D38   D(12,11,16,15)          0.0486         estimate D2E/DX2                !
 ! D39   D(21,11,16,5)           0.0371         estimate D2E/DX2                !
 ! D40   D(21,11,16,15)        179.9871         estimate D2E/DX2                !
 ! D41   D(12,11,21,4)         179.9152         estimate D2E/DX2                !
 ! D42   D(12,11,21,24)         -4.5854         estimate D2E/DX2                !
 ! D43   D(16,11,21,4)          -0.0221         estimate D2E/DX2                !
 ! D44   D(16,11,21,24)        175.4773         estimate D2E/DX2                !
 ! D45   D(11,12,13,14)          0.0213         estimate D2E/DX2                !
 ! D46   D(11,12,13,18)        179.9653         estimate D2E/DX2                !
 ! D47   D(17,12,13,14)       -179.8928         estimate D2E/DX2                !
 ! D48   D(17,12,13,18)          0.0513         estimate D2E/DX2                !
 ! D49   D(12,13,14,15)          0.016          estimate D2E/DX2                !
 ! D50   D(12,13,14,19)        179.9736         estimate D2E/DX2                !
 ! D51   D(18,13,14,15)       -179.9279         estimate D2E/DX2                !
 ! D52   D(18,13,14,19)          0.0296         estimate D2E/DX2                !
 ! D53   D(13,14,15,16)         -0.0223         estimate D2E/DX2                !
 ! D54   D(13,14,15,20)        179.9352         estimate D2E/DX2                !
 ! D55   D(19,14,15,16)       -179.9797         estimate D2E/DX2                !
 ! D56   D(19,14,15,20)         -0.0222         estimate D2E/DX2                !
 ! D57   D(14,15,16,5)         179.923          estimate D2E/DX2                !
 ! D58   D(14,15,16,11)         -0.0085         estimate D2E/DX2                !
 ! D59   D(20,15,16,5)          -0.0345         estimate D2E/DX2                !
 ! D60   D(20,15,16,11)       -179.966          estimate D2E/DX2                !
 ! D61   D(4,21,24,22)          22.6125         estimate D2E/DX2                !
 ! D62   D(11,21,24,22)       -152.7701         estimate D2E/DX2                !
 ! D63   D(23,22,24,21)         69.8614         estimate D2E/DX2                !
 --------------------------------------------------------------------------------
 Trust Radius=3.00D-01 FncErr=1.00D-07 GrdErr=1.00D-06
 Number of steps in this run=    140 maximum allowed number of steps=    144.
 GradGradGradGradGradGradGradGradGradGradGradGradGradGradGradGradGradGrad

                          Input orientation:                          
 ---------------------------------------------------------------------
 Center     Atomic      Atomic             Coordinates (Angstroms)
 Number     Number       Type             X           Y           Z
 ---------------------------------------------------------------------
      1          6           0       -2.523328   -2.140347    0.026235
      2          6           0       -3.152057   -0.892383   -0.043174
      3          6           0       -2.420489    0.288311   -0.087219
      4          6           0       -1.045884    0.154623   -0.057307
      5          6           0       -0.385692   -1.075914    0.010147
      6          6           0       -1.140657   -2.245736    0.053603
      7          1           0       -3.126949   -3.034114    0.058122
      8          1           0       -4.229815   -0.843547   -0.064601
      9          1           0       -2.882476    1.261339   -0.140693
     10          1           0       -0.661904   -3.211822    0.106103
     11          6           0        1.099107    0.634619   -0.050951
     12          6           0        2.289244    1.334645   -0.069729
     13          6           0        3.454382    0.579015   -0.017970
     14          6           0        3.413754   -0.817351    0.049036
     15          6           0        2.205468   -1.498627    0.065878
     16          6           0        1.025365   -0.760874    0.014929
     17          1           0        2.307849    2.411453   -0.123280
     18          1           0        4.409194    1.081440   -0.030725
     19          1           0        4.339175   -1.370659    0.087445
     20          1           0        2.181428   -2.576644    0.116654
     21          8           0       -0.151395    1.201944   -0.094954
     22          8           0       -1.873870    3.582898    0.059248
     23          1           0       -1.910219    3.661311    1.013456
     24          1           0       -1.139446    2.982623   -0.097692
 ---------------------------------------------------------------------
                    Distance matrix (angstroms):
                    1          2          3          4          5
     1  C    0.000000
     2  C    1.399118   0.000000
     3  C    2.433481   1.389665   0.000000
     4  C    2.730697   2.352102   1.381415   0.000000
     5  C    2.388046   2.772959   2.451732   1.398079   0.000000
     6  C    1.386952   2.426244   2.842392   2.404788   1.392962
     7  H    1.078978   2.144272   3.399811   3.809488   3.369175
     8  H    2.145236   1.079077   2.134309   3.336737   3.851865
     9  H    3.424663   2.172718   1.078460   2.145890   3.423366
    10  H    2.149264   3.406309   3.921852   3.392211   2.155830
    11  C    4.563817   4.517100   3.536778   2.198050   2.265896
    12  C    5.936803   5.879466   4.824594   3.537751   3.601730
    13  C    6.567336   6.768359   5.882467   4.520404   4.181596
    14  C    6.082745   6.566887   5.939650   4.565568   3.808432
    15  C    4.772304   5.392819   4.961458   3.649616   2.626005
    16  C    3.807400   4.179895   3.603489   2.265706   1.445806
    17  H    6.639391   6.382188   5.183263   4.042915   4.408480
    18  H    7.644803   7.814643   6.875814   5.533315   5.258020
    19  H    6.905803   7.507621   6.962453   5.598777   4.734682
    20  H    4.725808   5.595386   5.424682   4.231504   2.975507
    21  O    4.100203   3.659626   2.446134   1.377828   2.292287
    22  O    5.760071   4.655362   3.342835   3.528770   4.890973
    23  H    5.916903   4.836813   3.584549   3.767024   5.076624
    24  H    5.308042   4.366835   2.983370   2.829835   4.129346
                    6          7          8          9         10
     6  C    0.000000
     7  H    2.137034   0.000000
     8  H    3.394555   2.455597   0.000000
     9  H    3.920620   4.306996   2.500331   0.000000
    10  H    1.079483   2.471908   4.285774   5.000102   0.000000
    11  C    3.650194   5.597414   5.530151   4.031604   4.233312
    12  C    4.959694   6.959709   6.873331   5.172726   5.423150
    13  C    5.394323   7.508289   7.814905   6.374668   5.597289
    14  C    4.773150   6.906151   7.644459   6.633209   4.727339
    15  C    3.428538   5.549095   6.469855   5.791999   3.340431
    16  C    2.626397   4.734047   5.256432   4.402816   2.976967
    17  H    5.797663   7.695722   7.303391   5.316252   6.363432
    18  H    6.471326   8.587149   8.850943   7.294718   6.645815
    19  H    5.549366   7.649245   8.586533   7.689714   5.329261
    20  H    3.339120   5.328374   6.643833   6.359203   2.913434
    21  O    3.589875   5.178952   4.562726   2.732110   4.447738
    22  O    5.874573   6.734616   5.015898   2.539074   6.902121
    23  H    6.033800   6.871813   5.180394   2.834997   7.044256
    24  H    5.230548   6.338420   4.918440   2.450066   6.216167
                   11         12         13         14         15
    11  C    0.000000
    12  C    1.380875   0.000000
    13  C    2.356162   1.389677   0.000000
    14  C    2.734192   2.430990   1.398563   0.000000
    15  C    2.405914   2.837752   2.425575   1.387219   0.000000
    16  C    1.398992   2.448623   2.774258   2.389300   1.392666
    17  H    2.150216   1.078299   2.164130   3.417293   3.915991
    18  H    3.340170   2.135374   1.079009   2.145383   3.394479
    19  H    3.812917   3.397880   2.143642   1.078902   2.137650
    20  H    3.392893   3.917211   3.405396   2.149026   1.079480
    21  O    1.373881   2.444374   3.659999   4.099826   3.588001
    22  O    4.188447   4.733159   6.117152   6.879045   6.516359
    23  H    4.398849   4.921601   6.272426   7.023760   6.667964
    24  H    3.244446   3.804278   5.185262   5.932366   5.594355
                   16         17         18         19         20
    16  C    0.000000
    17  H    3.424547   0.000000
    18  H    3.853116   2.488604   0.000000
    19  H    3.370227   4.298263   2.455943   0.000000
    20  H    2.154959   4.995464   4.285585   2.472069   0.000000
    21  O    2.291177   2.740729   4.562633   5.178492   4.445736
    22  O    5.222632   4.346536   6.763304   7.946097   7.374869
    23  H    5.400966   4.543832   6.905145   8.076704   7.513848
    24  H    4.325836   3.494386   5.865696   7.000045   6.479166
                   21         22         23         24
    21  O    0.000000
    22  O    2.942727   0.000000
    23  H    3.220329   0.958114   0.000000
    24  H    2.036436   0.961425   1.513063   0.000000
 Stoichiometry    C12H10O2
 Framework group  C1[X(C12H10O2)]
 Deg. of freedom    66
 Full point group                 C1      NOp   1
 Largest Abelian subgroup         C1      NOp   1
 Largest concise Abelian subgroup C1      NOp   1
                         Standard orientation:                         
 ---------------------------------------------------------------------
 Center     Atomic      Atomic             Coordinates (Angstroms)
 Number     Number       Type             X           Y           Z
 ---------------------------------------------------------------------
      1          6           0       -2.523328   -2.140347    0.026235
      2          6           0       -3.152057   -0.892383   -0.043174
      3          6           0       -2.420489    0.288311   -0.087219
      4          6           0       -1.045884    0.154623   -0.057307
      5          6           0       -0.385692   -1.075914    0.010147
      6          6           0       -1.140657   -2.245736    0.053603
      7          1           0       -3.126949   -3.034114    0.058122
      8          1           0       -4.229815   -0.843547   -0.064601
      9          1           0       -2.882476    1.261339   -0.140693
     10          1           0       -0.661904   -3.211822    0.106103
     11          6           0        1.099107    0.634619   -0.050951
     12          6           0        2.289244    1.334645   -0.069729
     13          6           0        3.454382    0.579015   -0.017970
     14          6           0        3.413754   -0.817351    0.049036
     15          6           0        2.205468   -1.498627    0.065878
     16          6           0        1.025365   -0.760874    0.014929
     17          1           0        2.307849    2.411453   -0.123280
     18          1           0        4.409194    1.081440   -0.030725
     19          1           0        4.339175   -1.370659    0.087445
     20          1           0        2.181428   -2.576644    0.116654
     21          8           0       -0.151395    1.201944   -0.094954
     22          8           0       -1.873870    3.582898    0.059248
     23          1           0       -1.910219    3.661311    1.013456
     24          1           0       -1.139446    2.982623   -0.097692
 ---------------------------------------------------------------------
 Rotational constants (GHZ):      1.0055487      0.5765877      0.3673541
 Standard basis: Aug-CC-pVTZ (5D, 7F)
 There are  1020 symmetry adapted cartesian basis functions of A   symmetry.
 There are   874 symmetry adapted basis functions of A   symmetry.
   874 basis functions,  1278 primitive gaussians,  1020 cartesian basis functions
    49 alpha electrons       49 beta electrons
       nuclear repulsion energy       818.5565437738 Hartrees.
 NAtoms=   24 NActive=   24 NUniq=   24 SFac= 1.00D+00 NAtFMM=   60 NAOKFM=F Big=F
 Integral buffers will be    131072 words long.
 Raffenetti 2 integral format.
 Two-electron integral symmetry is turned on.
 Nuclear repulsion after empirical dispersion term =      818.5389591446 Hartrees.
 One-electron integrals computed using PRISM.
 NBasis=   874 RedAO= T EigKep=  1.04D-06  NBF=   874
 NBsUse=   867 1.00D-06 EigRej=  9.47D-07 NBFU=   867
 ExpMin= 2.53D-02 ExpMax= 1.53D+04 ExpMxC= 5.22D+02 IAcc=3 IRadAn=         5 AccDes= 0.00D+00
 Harris functional with IExCor=  402 and IRadAn=       5 diagonalized for initial guess.
 HarFok:  IExCor=  402 AccDes= 0.00D+00 IRadAn=         5 IDoV= 1 UseB2=F ITyADJ=14
 ICtDFT=  3500011 ScaDFX=  1.000000  1.000000  1.000000  1.000000
 FoFCou: FMM=F IPFlag=           0 FMFlag=      100000 FMFlg1=           0
         NFxFlg=           0 DoJE=T BraDBF=F KetDBF=T FulRan=T
         wScrn=  0.000000 ICntrl=     500 IOpCl=  0 I1Cent=   200000004 NGrid=           0
         NMat0=    1 NMatS0=      1 NMatT0=    0 NMatD0=    1 NMtDS0=    0 NMtDT0=    0
 Petite list used in FoFCou.
 Requested convergence on RMS density matrix=1.00D-08 within 128 cycles.
 Requested convergence on MAX density matrix=1.00D-06.
 Requested convergence on             energy=1.00D-06.
 No special actions if energy rises.
 Restarting incremental Fock formation.
 SCF Done:  E(RB3LYP) =  -614.005785264     A.U. after   21 cycles
            NFock= 21  Conv=0.64D-08     -V/T= 2.0059

 **********************************************************************

            Population analysis using the SCF density.

 **********************************************************************

 Orbital symmetries:
       Occupied  (A) (A) (A) (A) (A) (A) (A) (A) (A) (A) (A) (A)
                 (A) (A) (A) (A) (A) (A) (A) (A) (A) (A) (A) (A)
                 (A) (A) (A) (A) (A) (A) (A) (A) (A) (A) (A) (A)
                 (A) (A) (A) (A) (A) (A) (A) (A) (A) (A) (A) (A)
                 (A)
       Virtual   (A) (A) (A) (A) (A) (A) (A) (A) (A) (A) (A) (A)
                 (A) (A) (A) (A) (A) (A) (A) (A) (A) (A) (A) (A)
                 (A) (A) (A) (A) (A) (A) (A) (A) (A) (A) (A) (A)
                 (A) (A) (A) (A) (A) (A) (A) (A) (A) (A) (A) (A)
                 (A) (A) (A) (A) (A) (A) (A) (A) (A) (A) (A) (A)
                 (A) (A) (A) (A) (A) (A) (A) (A) (A) (A) (A) (A)
                 (A) (A) (A) (A) (A) (A) (A) (A) (A) (A) (A) (A)
                 (A) (A) (A) (A) (A) (A) (A) (A) (A) (A) (A) (A)
                 (A) (A) (A) (A) (A) (A) (A) (A) (A) (A) (A) (A)
                 (A) (A) (A) (A) (A) (A) (A) (A) (A) (A) (A) (A)
                 (A) (A) (A) (A) (A) (A) (A) (A) (A) (A) (A) (A)
                 (A) (A) (A) (A) (A) (A) (A) (A) (A) (A) (A) (A)
                 (A) (A) (A) (A) (A) (A) (A) (A) (A) (A) (A) (A)
                 (A) (A) (A) (A) (A) (A) (A) (A) (A) (A) (A) (A)
                 (A) (A) (A) (A) (A) (A) (A) (A) (A) (A) (A) (A)
                 (A) (A) (A) (A) (A) (A) (A) (A) (A) (A) (A) (A)
                 (A) (A) (A) (A) (A) (A) (A) (A) (A) (A) (A) (A)
                 (A) (A) (A) (A) (A) (A) (A) (A) (A) (A) (A) (A)
                 (A) (A) (A) (A) (A) (A) (A) (A) (A) (A) (A) (A)
                 (A) (A) (A) (A) (A) (A) (A) (A) (A) (A) (A) (A)
                 (A) (A) (A) (A) (A) (A) (A) (A) (A) (A) (A) (A)
                 (A) (A) (A) (A) (A) (A) (A) (A) (A) (A) (A) (A)
                 (A) (A) (A) (A) (A) (A) (A) (A) (A) (A) (A) (A)
                 (A) (A) (A) (A) (A) (A) (A) (A) (A) (A) (A) (A)
                 (A) (A) (A) (A) (A) (A) (A) (A) (A) (A) (A) (A)
                 (A) (A) (A) (A) (A) (A) (A) (A) (A) (A) (A) (A)
                 (A) (A) (A) (A) (A) (A) (A) (A) (A) (A) (A) (A)
                 (A) (A) (A) (A) (A) (A) (A) (A) (A) (A) (A) (A)
                 (A) (A) (A) (A) (A) (A) (A) (A) (A) (A) (A) (A)
                 (A) (A) (A) (A) (A) (A) (A) (A) (A) (A) (A) (A)
                 (A) (A) (A) (A) (A) (A) (A) (A) (A) (A) (A) (A)
                 (A) (A) (A) (A) (A) (A) (A) (A) (A) (A) (A) (A)
                 (A) (A) (A) (A) (A) (A) (A) (A) (A) (A) (A) (A)
                 (A) (A) (A) (A) (A) (A) (A) (A) (A) (A) (A) (A)
                 (A) (A) (A) (A) (A) (A) (A) (A) (A) (A) (A) (A)
                 (A) (A) (A) (A) (A) (A) (A) (A) (A) (A) (A) (A)
                 (A) (A) (A) (A) (A) (A) (A) (A) (A) (A) (A) (A)
                 (A) (A) (A) (A) (A) (A) (A) (A) (A) (A) (A) (A)
                 (A) (A) (A) (A) (A) (A) (A) (A) (A) (A) (A) (A)
                 (A) (A) (A) (A) (A) (A) (A) (A) (A) (A) (A) (A)
                 (A) (A) (A) (A) (A) (A) (A) (A) (A) (A) (A) (A)
                 (A) (A) (A) (A) (A) (A) (A) (A) (A) (A) (A) (A)
                 (A) (A) (A) (A) (A) (A) (A) (A) (A) (A) (A) (A)
                 (A) (A) (A) (A) (A) (A) (A) (A) (A) (A) (A) (A)
                 (A) (A) (A) (A) (A) (A) (A) (A) (A) (A) (A) (A)
                 (A) (A) (A) (A) (A) (A) (A) (A) (A) (A) (A) (A)
                 (A) (A) (A) (A) (A) (A) (A) (A) (A) (A) (A) (A)
                 (A) (A) (A) (A) (A) (A) (A) (A) (A) (A) (A) (A)
                 (A) (A) (A) (A) (A) (A) (A) (A) (A) (A) (A) (A)
                 (A) (A) (A) (A) (A) (A) (A) (A) (A) (A) (A) (A)
                 (A) (A) (A) (A) (A) (A) (A) (A) (A) (A) (A) (A)
                 (A) (A) (A) (A) (A) (A) (A) (A) (A) (A) (A) (A)
                 (A) (A) (A) (A) (A) (A) (A) (A) (A) (A) (A) (A)
                 (A) (A) (A) (A) (A) (A) (A) (A) (A) (A) (A) (A)
                 (A) (A) (A) (A) (A) (A) (A) (A) (A) (A) (A) (A)
                 (A) (A) (A) (A) (A) (A) (A) (A) (A) (A) (A) (A)
                 (A) (A) (A) (A) (A) (A) (A) (A) (A) (A) (A) (A)
                 (A) (A) (A) (A) (A) (A) (A) (A) (A) (A) (A) (A)
                 (A) (A) (A) (A) (A) (A) (A) (A) (A) (A) (A) (A)
                 (A) (A) (A) (A) (A) (A) (A) (A) (A) (A) (A) (A)
                 (A) (A) (A) (A) (A) (A) (A) (A) (A) (A) (A) (A)
                 (A) (A) (A) (A) (A) (A) (A) (A) (A) (A) (A) (A)
                 (A) (A) (A) (A) (A) (A) (A) (A) (A) (A) (A) (A)
                 (A) (A) (A) (A) (A) (A) (A) (A) (A) (A) (A) (A)
                 (A) (A) (A) (A) (A) (A) (A) (A) (A) (A) (A) (A)
                 (A) (A) (A) (A) (A) (A) (A) (A) (A) (A) (A) (A)
                 (A) (A) (A) (A) (A) (A) (A) (A) (A) (A) (A) (A)
                 (A) (A) (A) (A) (A) (A) (A) (A) (A) (A) (A) (A)
                 (A) (A)
 The electronic state is 1-A.
 Alpha  occ. eigenvalues --  -19.20734 -19.12403 -10.24842 -10.24610 -10.19836
 Alpha  occ. eigenvalues --  -10.19703 -10.19404 -10.19392 -10.19232 -10.19228
 Alpha  occ. eigenvalues --  -10.18933 -10.18789 -10.18716 -10.18514  -1.12489
 Alpha  occ. eigenvalues --   -1.00876  -0.87948  -0.87135  -0.80115  -0.77619
 Alpha  occ. eigenvalues --   -0.75159  -0.73971  -0.66235  -0.63684  -0.60945
 Alpha  occ. eigenvalues --   -0.59749  -0.54407  -0.53757  -0.52921  -0.50670
 Alpha  occ. eigenvalues --   -0.48069  -0.47717  -0.46719  -0.45327  -0.44552
 Alpha  occ. eigenvalues --   -0.44146  -0.42164  -0.38945  -0.38518  -0.38012
 Alpha  occ. eigenvalues --   -0.37848  -0.37077  -0.36323  -0.35209  -0.31084
 Alpha  occ. eigenvalues --   -0.30356  -0.27581  -0.24489  -0.23805
 Alpha virt. eigenvalues --   -0.05514  -0.01880  -0.01522  -0.01242  -0.00713
 Alpha virt. eigenvalues --   -0.00548   0.00741   0.01203   0.01303   0.02122
 Alpha virt. eigenvalues --    0.02709   0.02945   0.03225   0.04192   0.04516
 Alpha virt. eigenvalues --    0.05109   0.05636   0.05798   0.06074   0.06546
 Alpha virt. eigenvalues --    0.06821   0.07089   0.07402   0.07570   0.07751
 Alpha virt. eigenvalues --    0.07963   0.08336   0.08636   0.09090   0.09799
 Alpha virt. eigenvalues --    0.10043   0.10195   0.10309   0.10859   0.11072
 Alpha virt. eigenvalues --    0.11407   0.11608   0.12231   0.12662   0.13179
 Alpha virt. eigenvalues --    0.13415   0.13479   0.13915   0.14510   0.14777
 Alpha virt. eigenvalues --    0.15086   0.15361   0.15704   0.15797   0.16580
 Alpha virt. eigenvalues --    0.17370   0.17650   0.17824   0.17934   0.18257
 Alpha virt. eigenvalues --    0.18421   0.18781   0.19269   0.19363   0.19609
 Alpha virt. eigenvalues --    0.20104   0.20349   0.20573   0.20748   0.21042
 Alpha virt. eigenvalues --    0.21514   0.21892   0.21947   0.22064   0.22202
 Alpha virt. eigenvalues --    0.22553   0.23363   0.23379   0.23528   0.23989
 Alpha virt. eigenvalues --    0.24424   0.24696   0.25172   0.25302   0.25853
 Alpha virt. eigenvalues --    0.25902   0.26413   0.26725   0.26894   0.27254
 Alpha virt. eigenvalues --    0.27753   0.28483   0.28610   0.28830   0.29640
 Alpha virt. eigenvalues --    0.29687   0.30357   0.31006   0.31351   0.31878
 Alpha virt. eigenvalues --    0.31977   0.32441   0.32632   0.33195   0.33515
 Alpha virt. eigenvalues --    0.33987   0.34408   0.34546   0.34834   0.35673
 Alpha virt. eigenvalues --    0.35824   0.36090   0.36562   0.36677   0.37249
 Alpha virt. eigenvalues --    0.37487   0.37729   0.37818   0.38275   0.38845
 Alpha virt. eigenvalues --    0.38980   0.39405   0.39745   0.40043   0.40304
 Alpha virt. eigenvalues --    0.40378   0.40492   0.40612   0.41311   0.41640
 Alpha virt. eigenvalues --    0.42041   0.42436   0.42590   0.43121   0.43399
 Alpha virt. eigenvalues --    0.43872   0.44161   0.44426   0.44606   0.44967
 Alpha virt. eigenvalues --    0.45600   0.46033   0.46521   0.47135   0.47553
 Alpha virt. eigenvalues --    0.47829   0.48072   0.48408   0.48663   0.49441
 Alpha virt. eigenvalues --    0.49642   0.50145   0.50557   0.50729   0.51442
 Alpha virt. eigenvalues --    0.52893   0.53762   0.53974   0.54120   0.54404
 Alpha virt. eigenvalues --    0.54687   0.54973   0.55449   0.55839   0.56807
 Alpha virt. eigenvalues --    0.57542   0.58278   0.58472   0.58868   0.59019
 Alpha virt. eigenvalues --    0.60076   0.60841   0.61467   0.61574   0.61885
 Alpha virt. eigenvalues --    0.62148   0.62859   0.62997   0.63256   0.63952
 Alpha virt. eigenvalues --    0.64848   0.64964   0.65450   0.66022   0.66830
 Alpha virt. eigenvalues --    0.67301   0.67709   0.68054   0.68075   0.69547
 Alpha virt. eigenvalues --    0.69752   0.70164   0.71096   0.71466   0.71773
 Alpha virt. eigenvalues --    0.72027   0.72114   0.72725   0.73067   0.73321
 Alpha virt. eigenvalues --    0.74662   0.74724   0.74887   0.75156   0.75234
 Alpha virt. eigenvalues --    0.75575   0.75892   0.76583   0.76724   0.77264
 Alpha virt. eigenvalues --    0.77750   0.78064   0.78410   0.78574   0.78855
 Alpha virt. eigenvalues --    0.79371   0.80059   0.80531   0.80708   0.80999
 Alpha virt. eigenvalues --    0.81206   0.81740   0.82514   0.83216   0.83512
 Alpha virt. eigenvalues --    0.84446   0.84674   0.85028   0.85435   0.85517
 Alpha virt. eigenvalues --    0.86853   0.87023   0.87579   0.87887   0.88403
 Alpha virt. eigenvalues --    0.88734   0.88970   0.89346   0.89948   0.90145
 Alpha virt. eigenvalues --    0.90583   0.90808   0.91586   0.91774   0.92137
 Alpha virt. eigenvalues --    0.92417   0.93043   0.93240   0.93283   0.94029
 Alpha virt. eigenvalues --    0.94623   0.94806   0.95311   0.95791   0.96120
 Alpha virt. eigenvalues --    0.96475   0.96866   0.97708   0.98345   0.98637
 Alpha virt. eigenvalues --    0.98791   0.99099   0.99536   0.99800   1.00229
 Alpha virt. eigenvalues --    1.00696   1.01112   1.01293   1.02044   1.02285
 Alpha virt. eigenvalues --    1.02624   1.03215   1.03352   1.04031   1.04362
 Alpha virt. eigenvalues --    1.04405   1.04648   1.04920   1.05563   1.05735
 Alpha virt. eigenvalues --    1.06153   1.06703   1.07509   1.08152   1.08454
 Alpha virt. eigenvalues --    1.08912   1.09159   1.09903   1.10505   1.11029
 Alpha virt. eigenvalues --    1.11778   1.11995   1.12601   1.12956   1.13416
 Alpha virt. eigenvalues --    1.14336   1.15070   1.16151   1.16561   1.17006
 Alpha virt. eigenvalues --    1.17502   1.17860   1.18408   1.19481   1.20493
 Alpha virt. eigenvalues --    1.20743   1.21133   1.21704   1.22215   1.22997
 Alpha virt. eigenvalues --    1.23423   1.24386   1.24688   1.24941   1.25405
 Alpha virt. eigenvalues --    1.26174   1.27008   1.27388   1.27769   1.28642
 Alpha virt. eigenvalues --    1.28817   1.30064   1.30695   1.31455   1.32163
 Alpha virt. eigenvalues --    1.33265   1.34254   1.34667   1.35189   1.35570
 Alpha virt. eigenvalues --    1.36717   1.37258   1.37451   1.39171   1.39555
 Alpha virt. eigenvalues --    1.39628   1.40212   1.41643   1.42142   1.43025
 Alpha virt. eigenvalues --    1.43468   1.43737   1.44530   1.44691   1.46066
 Alpha virt. eigenvalues --    1.46471   1.46708   1.47531   1.48530   1.49065
 Alpha virt. eigenvalues --    1.49356   1.50102   1.51080   1.52638   1.52973
 Alpha virt. eigenvalues --    1.53699   1.54565   1.54912   1.56590   1.57309
 Alpha virt. eigenvalues --    1.57487   1.58041   1.58515   1.58757   1.60709
 Alpha virt. eigenvalues --    1.61664   1.61857   1.62302   1.62605   1.63699
 Alpha virt. eigenvalues --    1.64000   1.64402   1.64879   1.65709   1.66455
 Alpha virt. eigenvalues --    1.67262   1.68142   1.68587   1.69400   1.70288
 Alpha virt. eigenvalues --    1.70712   1.71131   1.72312   1.72618   1.74110
 Alpha virt. eigenvalues --    1.75283   1.75559   1.76461   1.76829   1.77218
 Alpha virt. eigenvalues --    1.77810   1.77912   1.79080   1.79996   1.80383
 Alpha virt. eigenvalues --    1.81108   1.81503   1.82049   1.82380   1.82960
 Alpha virt. eigenvalues --    1.84131   1.85057   1.85409   1.86091   1.86309
 Alpha virt. eigenvalues --    1.86985   1.87481   1.87581   1.88322   1.89273
 Alpha virt. eigenvalues --    1.90360   1.90991   1.91578   1.92330   1.92698
 Alpha virt. eigenvalues --    1.94221   1.96153   1.97437   1.98143   1.98636
 Alpha virt. eigenvalues --    1.99243   1.99324   1.99725   2.01056   2.01314
 Alpha virt. eigenvalues --    2.01735   2.02272   2.02910   2.05277   2.06639
 Alpha virt. eigenvalues --    2.06841   2.07323   2.07629   2.09304   2.11060
 Alpha virt. eigenvalues --    2.12221   2.12334   2.13611   2.13957   2.14516
 Alpha virt. eigenvalues --    2.15222   2.15783   2.16678   2.17554   2.18743
 Alpha virt. eigenvalues --    2.19522   2.20047   2.21034   2.21511   2.23139
 Alpha virt. eigenvalues --    2.24277   2.25164   2.26817   2.27829   2.29206
 Alpha virt. eigenvalues --    2.29892   2.30215   2.31910   2.32775   2.34461
 Alpha virt. eigenvalues --    2.35811   2.36166   2.37206   2.37671   2.38269
 Alpha virt. eigenvalues --    2.39431   2.39867   2.41600   2.43197   2.43561
 Alpha virt. eigenvalues --    2.44052   2.45744   2.46620   2.48995   2.49563
 Alpha virt. eigenvalues --    2.50132   2.51393   2.52328   2.52611   2.53340
 Alpha virt. eigenvalues --    2.54255   2.55487   2.56974   2.58107   2.61388
 Alpha virt. eigenvalues --    2.62405   2.63890   2.64778   2.67579   2.68733
 Alpha virt. eigenvalues --    2.69650   2.71792   2.72402   2.73622   2.75325
 Alpha virt. eigenvalues --    2.77528   2.78397   2.81313   2.82287   2.83046
 Alpha virt. eigenvalues --    2.85767   2.87009   2.88461   2.89489   2.90515
 Alpha virt. eigenvalues --    2.91702   2.92941   2.94460   2.94800   2.95795
 Alpha virt. eigenvalues --    2.96382   2.97408   2.99753   2.99916   3.00927
 Alpha virt. eigenvalues --    3.02512   3.03724   3.04891   3.05573   3.06300
 Alpha virt. eigenvalues --    3.07493   3.07599   3.07909   3.09236   3.09824
 Alpha virt. eigenvalues --    3.11950   3.12663   3.13230   3.14936   3.15294
 Alpha virt. eigenvalues --    3.16023   3.16847   3.19123   3.19951   3.20297
 Alpha virt. eigenvalues --    3.20335   3.22366   3.22554   3.23040   3.24505
 Alpha virt. eigenvalues --    3.25245   3.25645   3.26065   3.26543   3.27425
 Alpha virt. eigenvalues --    3.27988   3.28608   3.28986   3.29381   3.30695
 Alpha virt. eigenvalues --    3.31352   3.31874   3.32600   3.33857   3.34168
 Alpha virt. eigenvalues --    3.34930   3.37112   3.37671   3.38319   3.39741
 Alpha virt. eigenvalues --    3.39920   3.41611   3.42430   3.44191   3.45307
 Alpha virt. eigenvalues --    3.45416   3.45794   3.47100   3.48885   3.50275
 Alpha virt. eigenvalues --    3.50895   3.51240   3.51950   3.52337   3.52418
 Alpha virt. eigenvalues --    3.52966   3.54906   3.55622   3.56046   3.57551
 Alpha virt. eigenvalues --    3.58451   3.59800   3.60752   3.60881   3.61744
 Alpha virt. eigenvalues --    3.63154   3.63713   3.64450   3.64753   3.65305
 Alpha virt. eigenvalues --    3.65738   3.66953   3.67234   3.67753   3.68192
 Alpha virt. eigenvalues --    3.69307   3.69368   3.70087   3.71199   3.72147
 Alpha virt. eigenvalues --    3.73593   3.76004   3.76225   3.78325   3.79411
 Alpha virt. eigenvalues --    3.80202   3.81119   3.81959   3.82328   3.84246
 Alpha virt. eigenvalues --    3.84986   3.85651   3.86827   3.87314   3.88121
 Alpha virt. eigenvalues --    3.89054   3.89475   3.90656   3.91461   3.91764
 Alpha virt. eigenvalues --    3.93192   3.94195   3.94820   3.95534   3.96026
 Alpha virt. eigenvalues --    3.96540   3.97361   3.97803   3.98642   3.99109
 Alpha virt. eigenvalues --    3.99874   4.00977   4.01376   4.02455   4.02703
 Alpha virt. eigenvalues --    4.04598   4.04771   4.05181   4.05901   4.06216
 Alpha virt. eigenvalues --    4.07161   4.08571   4.08810   4.10207   4.10369
 Alpha virt. eigenvalues --    4.11164   4.11444   4.12566   4.13044   4.13297
 Alpha virt. eigenvalues --    4.15037   4.16146   4.16558   4.17452   4.18650
 Alpha virt. eigenvalues --    4.20302   4.21441   4.22537   4.23689   4.24116
 Alpha virt. eigenvalues --    4.26126   4.26442   4.28020   4.29498   4.29944
 Alpha virt. eigenvalues --    4.30913   4.31539   4.33168   4.34261   4.34654
 Alpha virt. eigenvalues --    4.35496   4.37200   4.37551   4.39759   4.40579
 Alpha virt. eigenvalues --    4.41301   4.42380   4.42837   4.44901   4.46348
 Alpha virt. eigenvalues --    4.46922   4.47771   4.49190   4.49814   4.52031
 Alpha virt. eigenvalues --    4.53363   4.54779   4.55626   4.56625   4.57244
 Alpha virt. eigenvalues --    4.59521   4.60877   4.61749   4.63760   4.64050
 Alpha virt. eigenvalues --    4.65527   4.66019   4.66547   4.67821   4.69273
 Alpha virt. eigenvalues --    4.69411   4.69832   4.71963   4.73671   4.74740
 Alpha virt. eigenvalues --    4.77169   4.78941   4.79650   4.80232   4.81126
 Alpha virt. eigenvalues --    4.81824   4.82258   4.83658   4.85266   4.85969
 Alpha virt. eigenvalues --    4.86092   4.87327   4.88421   4.89228   4.89802
 Alpha virt. eigenvalues --    4.92195   4.93026   4.93534   4.95161   4.96655
 Alpha virt. eigenvalues --    4.99316   4.99856   5.01605   5.02850   5.04782
 Alpha virt. eigenvalues --    5.05907   5.06614   5.08057   5.09676   5.14567
 Alpha virt. eigenvalues --    5.15047   5.18180   5.19629   5.20262   5.24314
 Alpha virt. eigenvalues --    5.24993   5.27248   5.28729   5.30444   5.33705
 Alpha virt. eigenvalues --    5.34562   5.36864   5.39588   5.42715   5.44948
 Alpha virt. eigenvalues --    5.46583   5.52266   5.52774   5.62228   5.63710
 Alpha virt. eigenvalues --    5.70488   5.75376   5.82219   5.82770   5.83031
 Alpha virt. eigenvalues --    5.85622   5.86771   5.88602   5.91045   5.91647
 Alpha virt. eigenvalues --    5.96651   5.97053   5.99900   6.08138   6.10084
 Alpha virt. eigenvalues --    6.12258   6.13179   6.15061   6.23996   6.26466
 Alpha virt. eigenvalues --    6.31932   6.35490   6.37872   6.41547   6.46137
 Alpha virt. eigenvalues --    6.47274   6.48677   6.55437   6.61200   6.65314
 Alpha virt. eigenvalues --    6.66077   6.67940   6.69903   6.73530   6.77096
 Alpha virt. eigenvalues --    6.81308   6.82159   6.85362   6.90843   6.96716
 Alpha virt. eigenvalues --    6.98197   7.02190   7.05349   7.07964   7.15635
 Alpha virt. eigenvalues --    7.28036   7.35166   7.47672   7.49529   7.59102
 Alpha virt. eigenvalues --    7.61507   8.00123   8.12272   8.41482  15.31883
 Alpha virt. eigenvalues --   15.84076  16.09256  16.35400  16.72416  17.07005
 Alpha virt. eigenvalues --   18.21606  18.63893  18.75418  19.13615  19.74597
 Alpha virt. eigenvalues --   19.85452  19.97321  20.23271
          Condensed to atoms (all electrons):
               1          2          3          4          5          6
     1  C    7.267427  -0.330390   0.193384  -0.025533  -0.288002  -0.309689
     2  C   -0.330390   6.999842  -0.030193  -0.211611  -0.209976   0.131230
     3  C    0.193384  -0.030193   8.055121  -1.146190   0.113229  -0.411758
     4  C   -0.025533  -0.211611  -1.146190   8.147962  -0.626891  -0.056623
     5  C   -0.288002  -0.209976   0.113229  -0.626891   9.198618  -0.380060
     6  C   -0.309689   0.131230  -0.411758  -0.056623  -0.380060   8.134253
     7  H    0.345906  -0.294002   0.119939  -0.070500   0.169341  -0.454034
     8  H   -0.318932   0.348786  -0.395128   0.207708  -0.083134   0.139122
     9  H    0.038069  -0.244754   0.220840  -0.248372   0.062160   0.005841
    10  H   -0.340143   0.071983  -0.010366   0.010841  -0.303433   0.617738
    11  C   -0.006678   0.023457  -0.405678   0.613727  -1.058246   0.104385
    12  C    0.004507   0.011540  -0.000818  -0.502111   0.654137  -0.040018
    13  C    0.000053  -0.000246   0.031303   0.083998  -0.074974  -0.000746
    14  C   -0.015525   0.001664  -0.008990   0.029963   0.132422   0.012767
    15  C    0.014117  -0.003389  -0.097696   0.124816  -0.798304   0.326189
    16  C    0.128694   0.003393   0.593149  -0.986908  -1.025840  -0.867976
    17  H    0.000981  -0.000756   0.017387  -0.002472  -0.033002  -0.008763
    18  H   -0.000393   0.000354  -0.001521   0.001307   0.005123   0.004840
    19  H    0.000130  -0.000636   0.003283   0.003914  -0.012982  -0.011548
    20  H    0.014936   0.003039  -0.017442  -0.008201  -0.049570   0.079720
    21  O   -0.025712   0.042607  -0.150551   0.014229  -0.172341   0.046983
    22  O    0.000533   0.011757  -0.015867   0.027873  -0.009519   0.001229
    23  H    0.000347   0.000322   0.006493  -0.011650   0.000380   0.000067
    24  H   -0.000068   0.002967  -0.009094   0.020326   0.002743   0.002303
               7          8          9         10         11         12
     1  C    0.345906  -0.318932   0.038069  -0.340143  -0.006678   0.004507
     2  C   -0.294002   0.348786  -0.244754   0.071983   0.023457   0.011540
     3  C    0.119939  -0.395128   0.220840  -0.010366  -0.405678  -0.000818
     4  C   -0.070500   0.207708  -0.248372   0.010841   0.613727  -0.502111
     5  C    0.169341  -0.083134   0.062160  -0.303433  -1.058246   0.654137
     6  C   -0.454034   0.139122   0.005841   0.617738   0.104385  -0.040018
     7  H    0.861346  -0.107248   0.007014  -0.054825   0.014653   0.005614
     8  H   -0.107248   0.883756  -0.052992   0.008170  -0.008225  -0.005826
     9  H    0.007014  -0.052992   0.829339  -0.002090  -0.017423   0.025645
    10  H   -0.054825   0.008170  -0.002090   0.826790   0.012506  -0.018064
    11  C    0.014653  -0.008225  -0.017423   0.012506   8.638384  -1.382725
    12  C    0.005614  -0.005826   0.025645  -0.018064  -1.382725   8.156058
    13  C   -0.000664  -0.000049  -0.000175   0.002458  -0.217639  -0.105022
    14  C   -0.002483   0.000567   0.000529   0.009262  -0.055714   0.115537
    15  C   -0.022529   0.010306  -0.010006   0.059027  -0.074196  -0.445348
    16  C   -0.022567   0.014557  -0.045194  -0.018153  -0.551320   0.360425
    17  H    0.000246  -0.000368   0.004803  -0.001566  -0.225895   0.245036
    18  H   -0.000061   0.000059  -0.000469   0.000730   0.260762  -0.434608
    19  H    0.000165  -0.000063   0.000320  -0.002573  -0.138582   0.118949
    20  H   -0.002471   0.000672  -0.001582   0.007269   0.020820  -0.016360
    21  O    0.000519   0.000955   0.019637  -0.003494   0.199023  -0.172288
    22  O   -0.000030  -0.000020  -0.028102   0.000118   0.011170  -0.003386
    23  H   -0.000012   0.000134  -0.013165  -0.000004   0.006007  -0.000330
    24  H   -0.000214   0.001302  -0.019366   0.000681   0.024062  -0.018752
              13         14         15         16         17         18
     1  C    0.000053  -0.015525   0.014117   0.128694   0.000981  -0.000393
     2  C   -0.000246   0.001664  -0.003389   0.003393  -0.000756   0.000354
     3  C    0.031303  -0.008990  -0.097696   0.593149   0.017387  -0.001521
     4  C    0.083998   0.029963   0.124816  -0.986908  -0.002472   0.001307
     5  C   -0.074974   0.132422  -0.798304  -1.025840  -0.033002   0.005123
     6  C   -0.000746   0.012767   0.326189  -0.867976  -0.008763   0.004840
     7  H   -0.000664  -0.002483  -0.022529  -0.022567   0.000246  -0.000061
     8  H   -0.000049   0.000567   0.010306   0.014557  -0.000368   0.000059
     9  H   -0.000175   0.000529  -0.010006  -0.045194   0.004803  -0.000469
    10  H    0.002458   0.009262   0.059027  -0.018153  -0.001566   0.000730
    11  C   -0.217639  -0.055714  -0.074196  -0.551320  -0.225895   0.260762
    12  C   -0.105022   0.115537  -0.445348   0.360425   0.245036  -0.434608
    13  C    6.920344  -0.258632   0.162718  -0.342585  -0.185615   0.380061
    14  C   -0.258632   7.215827  -0.160196  -0.409498   0.057898  -0.326897
    15  C    0.162718  -0.160196   8.194687  -0.564895  -0.004692   0.126215
    16  C   -0.342585  -0.409498  -0.564895   9.366042   0.035182  -0.110100
    17  H   -0.185615   0.057898  -0.004692   0.035182   0.757035  -0.041641
    18  H    0.380061  -0.326897   0.126215  -0.110100  -0.041641   0.890109
    19  H   -0.313021   0.299225  -0.409704   0.219442   0.006873  -0.117184
    20  H    0.098348  -0.268117   0.618831  -0.365112  -0.002131   0.009121
    21  O    0.048977  -0.032364   0.058637  -0.160093  -0.005779  -0.002296
    22  O   -0.002879  -0.000272  -0.000006   0.000661   0.001180  -0.000160
    23  H    0.000521   0.000112  -0.000559  -0.000752  -0.000836   0.000009
    24  H   -0.001540  -0.000449   0.002444  -0.002310  -0.005026   0.001090
              19         20         21         22         23         24
     1  C    0.000130   0.014936  -0.025712   0.000533   0.000347  -0.000068
     2  C   -0.000636   0.003039   0.042607   0.011757   0.000322   0.002967
     3  C    0.003283  -0.017442  -0.150551  -0.015867   0.006493  -0.009094
     4  C    0.003914  -0.008201   0.014229   0.027873  -0.011650   0.020326
     5  C   -0.012982  -0.049570  -0.172341  -0.009519   0.000380   0.002743
     6  C   -0.011548   0.079720   0.046983   0.001229   0.000067   0.002303
     7  H    0.000165  -0.002471   0.000519  -0.000030  -0.000012  -0.000214
     8  H   -0.000063   0.000672   0.000955  -0.000020   0.000134   0.001302
     9  H    0.000320  -0.001582   0.019637  -0.028102  -0.013165  -0.019366
    10  H   -0.002573   0.007269  -0.003494   0.000118  -0.000004   0.000681
    11  C   -0.138582   0.020820   0.199023   0.011170   0.006007   0.024062
    12  C    0.118949  -0.016360  -0.172288  -0.003386  -0.000330  -0.018752
    13  C   -0.313021   0.098348   0.048977  -0.002879   0.000521  -0.001540
    14  C    0.299225  -0.268117  -0.032364  -0.000272   0.000112  -0.000449
    15  C   -0.409704   0.618831   0.058637  -0.000006  -0.000559   0.002444
    16  C    0.219442  -0.365112  -0.160093   0.000661  -0.000752  -0.002310
    17  H    0.006873  -0.002131  -0.005779   0.001180  -0.000836  -0.005026
    18  H   -0.117184   0.009121  -0.002296  -0.000160   0.000009   0.001090
    19  H    0.896709  -0.063344   0.005086   0.000010   0.000012  -0.000341
    20  H   -0.063344   0.830514  -0.005379  -0.000012  -0.000037   0.000375
    21  O    0.005086  -0.005379   8.958557  -0.026052   0.015537  -0.055183
    22  O    0.000010  -0.000012  -0.026052   8.119317   0.238443   0.158298
    23  H    0.000012  -0.000037   0.015537   0.238443   0.554510   0.035496
    24  H   -0.000341   0.000375  -0.055183   0.158298   0.035496   0.535040
 Mulliken charges:
               1
     1  C   -0.348017
     2  C   -0.326987
     3  C   -0.652836
     4  C    0.610396
     5  C    0.788121
     6  C   -1.065454
     7  H    0.506897
     8  H    0.355892
     9  H    0.469492
    10  H    0.127137
    11  C    0.213365
    12  C   -0.551789
    13  C   -0.224995
    14  C   -0.336636
    15  C   -1.106466
    16  C    0.751757
    17  H    0.391924
    18  H    0.355549
    19  H    0.515860
    20  H    0.116112
    21  O   -0.599214
    22  O   -0.484283
    23  H    0.168954
    24  H    0.325218
 Sum of Mulliken charges =   0.00000
 Mulliken charges with hydrogens summed into heavy atoms:
               1
     1  C    0.158880
     2  C    0.028905
     3  C   -0.183344
     4  C    0.610396
     5  C    0.788121
     6  C   -0.938317
    11  C    0.213365
    12  C   -0.159865
    13  C    0.130554
    14  C    0.179225
    15  C   -0.990353
    16  C    0.751757
    21  O   -0.599214
    22  O    0.009889
 Electronic spatial extent (au):  <R**2>=           2905.7021
 Charge=              0.0000 electrons
 Dipole moment (field-independent basis, Debye):
    X=              1.3278    Y=             -1.9553    Z=              1.1933  Tot=              2.6477
 Quadrupole moment (field-independent basis, Debye-Ang):
   XX=            -74.5090   YY=            -82.1444   ZZ=            -84.8781
   XY=              5.6022   XZ=             -2.5113   YZ=              4.4019
 Traceless Quadrupole moment (field-independent basis, Debye-Ang):
   XX=              6.0015   YY=             -1.6339   ZZ=             -4.3676
   XY=              5.6022   XZ=             -2.5113   YZ=              4.4019
 Octapole moment (field-independent basis, Debye-Ang**2):
  XXX=              2.6504  YYY=            -29.5395  ZZZ=              2.4323  XYY=             21.4105
  XXY=             -5.8028  XXZ=              5.1077  XZZ=             -8.3531  YZZ=             18.5245
  YYZ=             20.3352  XYZ=            -11.2159
 Hexadecapole moment (field-independent basis, Debye-Ang**3):
 XXXX=          -2272.1647 YYYY=          -1469.0647 ZZZZ=           -100.7990 XXXY=             19.3964
 XXXZ=             -8.6394 YYYX=             69.5929 YYYZ=             72.4845 ZZZX=             -6.5949
 ZZZY=             11.6350 XXYY=           -637.2030 XXZZ=           -472.6171 YYZZ=           -236.3804
 XXYZ=             18.9202 YYXZ=            -42.8032 ZZXY=            -29.9276
 N-N= 8.185389591446D+02 E-N=-3.066361435819D+03  KE= 6.103982137829D+02
 Calling FoFJK, ICntrl=      2127 FMM=F ISym2X=0 I1Cent= 0 IOpClX= 0 NMat=1 NMatS=1 NMatT=0.
 ***** Axes restored to original set *****
 -------------------------------------------------------------------
 Center     Atomic                   Forces (Hartrees/Bohr)
 Number     Number              X              Y              Z
 -------------------------------------------------------------------
      1        6           0.000073789    0.000398339    0.000013810
      2        6          -0.000130209   -0.000310752   -0.000005398
      3        6           0.000973917   -0.000835323    0.000241823
      4        6          -0.003917772   -0.000175873   -0.000448832
      5        6           0.000427303   -0.001079626    0.000194183
      6        6          -0.000241440    0.000311113   -0.000058603
      7        1          -0.000880753   -0.001276072    0.000051180
      8        1          -0.001546120    0.000053085   -0.000021266
      9        1          -0.000816456    0.000808375   -0.000282644
     10        1           0.000695735   -0.001072729    0.000070391
     11        6           0.003710139    0.001709144   -0.000126324
     12        6          -0.000452140   -0.000720381    0.000064979
     13        6           0.000151676   -0.000333633    0.000013674
     14        6          -0.000212132    0.000315945   -0.000019508
     15        6           0.000076780    0.000353869   -0.000014703
     16        6           0.000077123   -0.001070563    0.000085136
     17        1          -0.000103683    0.001352579   -0.000080693
     18        1           0.001360196    0.000708642   -0.000014098
     19        1           0.001331301   -0.000798124    0.000057400
     20        1          -0.000178899   -0.001272411    0.000046784
     21        8          -0.000566266    0.001708905   -0.000187552
     22        8          -0.002114471    0.002041171   -0.001883385
     23        1          -0.000927096    0.001506491    0.003530572
     24        1           0.003209478   -0.002322170   -0.001226926
 -------------------------------------------------------------------
 Cartesian Forces:  Max     0.003917772 RMS     0.001192960

 GradGradGradGradGradGradGradGradGradGradGradGradGradGradGradGradGradGrad
 Berny optimization.
 FormGI is forming the generalized inverse of G from B-inverse, IUseBI=4.
 Internal  Forces:  Max     0.004809366 RMS     0.001040000
 Search for a local minimum.
 Step number   1 out of a maximum of  140
 All quantities printed in internal units (Hartrees-Bohrs-Radians)
 Mixed Optimization -- RFO/linear search
 Second derivative matrix not updated -- first step.
 ITU=  0
     Eigenvalues ---    0.00230   0.01539   0.01643   0.01822   0.01968
     Eigenvalues ---    0.02007   0.02078   0.02136   0.02150   0.02156
     Eigenvalues ---    0.02171   0.02183   0.02186   0.02186   0.02188
     Eigenvalues ---    0.02225   0.02225   0.02254   0.02257   0.02282
     Eigenvalues ---    0.02287   0.04057   0.15934   0.16000   0.16000
     Eigenvalues ---    0.16000   0.16000   0.16000   0.16000   0.16000
     Eigenvalues ---    0.16000   0.16000   0.22000   0.22000   0.22589
     Eigenvalues ---    0.22603   0.23761   0.24505   0.24631   0.25000
     Eigenvalues ---    0.25000   0.36057   0.36057   0.36106   0.36114
     Eigenvalues ---    0.36118   0.36127   0.36181   0.36201   0.36786
     Eigenvalues ---    0.37599   0.41441   0.43299   0.43318   0.44599
     Eigenvalues ---    0.45563   0.46921   0.46939   0.47202   0.47217
     Eigenvalues ---    0.47553   0.48459   0.48524   0.49094   0.55168
     Eigenvalues ---    0.55881
 RFO step:  Lambda=-5.18913468D-04 EMin= 2.30000000D-03
 Linear search not attempted -- first point.
 Iteration  1 RMS(Cart)=  0.03597557 RMS(Int)=  0.00182735
 Iteration  2 RMS(Cart)=  0.00206193 RMS(Int)=  0.00000994
 Iteration  3 RMS(Cart)=  0.00000907 RMS(Int)=  0.00000876
 Iteration  4 RMS(Cart)=  0.00000000 RMS(Int)=  0.00000876
 Variable       Old X    -DE/DX   Delta X   Delta X   Delta X     New X
                                 (Linear)    (Quad)   (Total)
    R1        2.64395   0.00083   0.00000   0.00176   0.00176   2.64571
    R2        2.62096   0.00119   0.00000   0.00242   0.00242   2.62338
    R3        2.03897   0.00155   0.00000   0.00429   0.00429   2.04326
    R4        2.62609   0.00152   0.00000   0.00319   0.00319   2.62928
    R5        2.03916   0.00155   0.00000   0.00428   0.00428   2.04344
    R6        2.61050   0.00102   0.00000   0.00214   0.00214   2.61263
    R7        2.03799   0.00109   0.00000   0.00301   0.00301   2.04101
    R8        2.64199   0.00233   0.00000   0.00516   0.00516   2.64715
    R9        2.60372   0.00440   0.00000   0.00925   0.00925   2.61296
   R10        2.63232   0.00117   0.00000   0.00250   0.00250   2.63482
   R11        2.73218   0.00200   0.00000   0.00471   0.00471   2.73689
   R12        2.03993   0.00127   0.00000   0.00353   0.00353   2.04345
   R13        2.60948   0.00071   0.00000   0.00145   0.00145   2.61092
   R14        2.64371   0.00175   0.00000   0.00354   0.00354   2.64725
   R15        2.59626   0.00343   0.00000   0.00701   0.00701   2.60327
   R16        2.62611   0.00151   0.00000   0.00321   0.00321   2.62932
   R17        2.03769   0.00135   0.00000   0.00374   0.00374   2.04143
   R18        2.64290   0.00102   0.00000   0.00226   0.00226   2.64516
   R19        2.03903   0.00153   0.00000   0.00424   0.00424   2.04327
   R20        2.62146   0.00135   0.00000   0.00282   0.00282   2.62429
   R21        2.03883   0.00155   0.00000   0.00429   0.00429   2.04312
   R22        2.63176   0.00117   0.00000   0.00247   0.00247   2.63423
   R23        2.03992   0.00128   0.00000   0.00353   0.00353   2.04345
   R24        3.84831   0.00099   0.00000   0.02408   0.02408   3.87239
   R25        1.81057   0.00368   0.00000   0.00657   0.00657   1.81715
   R26        1.81683   0.00481   0.00000   0.00871   0.00871   1.82554
    A1        2.11384  -0.00009   0.00000  -0.00071  -0.00071   2.11313
    A2        2.08165   0.00003   0.00000   0.00027   0.00027   2.08192
    A3        2.08769   0.00006   0.00000   0.00044   0.00044   2.08813
    A4        2.12098  -0.00014   0.00000  -0.00082  -0.00082   2.12016
    A5        2.08309   0.00005   0.00000   0.00029   0.00029   2.08338
    A6        2.07912   0.00009   0.00000   0.00053   0.00053   2.07965
    A7        2.02743   0.00057   0.00000   0.00264   0.00264   2.03007
    A8        2.14435  -0.00068   0.00000  -0.00380  -0.00380   2.14055
    A9        2.11140   0.00011   0.00000   0.00116   0.00116   2.11256
   A10        2.16049  -0.00059   0.00000  -0.00249  -0.00249   2.15801
   A11        2.17955   0.00189   0.00000   0.00718   0.00718   2.18673
   A12        1.94313  -0.00130   0.00000  -0.00468  -0.00469   1.93844
   A13        2.07686  -0.00019   0.00000  -0.00037  -0.00037   2.07649
   A14        1.84340   0.00083   0.00000   0.00258   0.00258   1.84598
   A15        2.36292  -0.00064   0.00000  -0.00221  -0.00221   2.36071
   A16        2.06676   0.00043   0.00000   0.00174   0.00174   2.06851
   A17        2.10726  -0.00006   0.00000   0.00007   0.00007   2.10733
   A18        2.10916  -0.00037   0.00000  -0.00181  -0.00181   2.10735
   A19        2.15525   0.00005   0.00000   0.00006   0.00006   2.15531
   A20        2.18304   0.00061   0.00000   0.00265   0.00265   2.18569
   A21        1.94490  -0.00066   0.00000  -0.00270  -0.00271   1.94219
   A22        2.03360   0.00027   0.00000   0.00112   0.00112   2.03472
   A23        2.11974  -0.00027   0.00000  -0.00137  -0.00137   2.11837
   A24        2.12984   0.00000   0.00000   0.00026   0.00026   2.13010
   A25        2.11802  -0.00021   0.00000  -0.00094  -0.00094   2.11709
   A26        2.08093   0.00011   0.00000   0.00049   0.00049   2.08142
   A27        2.08424   0.00010   0.00000   0.00044   0.00044   2.08468
   A28        2.11323  -0.00004   0.00000  -0.00022  -0.00022   2.11301
   A29        2.08154   0.00002   0.00000   0.00011   0.00011   2.08165
   A30        2.08841   0.00002   0.00000   0.00011   0.00011   2.08852
   A31        2.06856   0.00032   0.00000   0.00125   0.00125   2.06981
   A32        2.10646  -0.00001   0.00000   0.00033   0.00033   2.10679
   A33        2.10816  -0.00031   0.00000  -0.00157  -0.00157   2.10659
   A34        1.84278   0.00069   0.00000   0.00167   0.00167   1.84445
   A35        2.36270  -0.00029   0.00000  -0.00041  -0.00040   2.36230
   A36        2.07770  -0.00040   0.00000  -0.00127  -0.00127   2.07643
   A37        1.85058   0.00045   0.00000   0.00313   0.00312   1.85370
   A38        1.92806   0.00191   0.00000   0.01187   0.01188   1.93994
   A39        2.50266  -0.00235   0.00000  -0.01479  -0.01479   2.48787
   A40        1.81589   0.00249   0.00000   0.01551   0.01551   1.83140
   A41        2.72968   0.00180   0.00000   0.00720   0.00720   2.73688
    D1       -0.00014  -0.00003   0.00000  -0.00152  -0.00152  -0.00166
    D2        3.13981  -0.00004   0.00000  -0.00177  -0.00177   3.13804
    D3       -3.14091   0.00000   0.00000  -0.00005  -0.00005  -3.14096
    D4       -0.00096  -0.00001   0.00000  -0.00030  -0.00030  -0.00126
    D5       -0.00011   0.00003   0.00000   0.00136   0.00136   0.00125
    D6       -3.14041   0.00002   0.00000   0.00152   0.00153  -3.13888
    D7        3.14065   0.00000   0.00000  -0.00011  -0.00012   3.14054
    D8        0.00036  -0.00001   0.00000   0.00005   0.00005   0.00042
    D9       -0.00094   0.00001   0.00000   0.00015   0.00015  -0.00079
   D10       -3.14139  -0.00008   0.00000  -0.00317  -0.00316   3.13863
   D11       -3.14090   0.00001   0.00000   0.00040   0.00040  -3.14050
   D12        0.00184  -0.00007   0.00000  -0.00292  -0.00291  -0.00108
   D13        0.00239   0.00002   0.00000   0.00136   0.00137   0.00376
   D14        3.13914   0.00006   0.00000   0.00311   0.00311  -3.14094
   D15       -3.14032   0.00010   0.00000   0.00461   0.00462  -3.13570
   D16       -0.00357   0.00014   0.00000   0.00636   0.00636   0.00279
   D17       -0.00270  -0.00002   0.00000  -0.00151  -0.00152  -0.00422
   D18        3.13776  -0.00004   0.00000  -0.00324  -0.00325   3.13451
   D19       -3.14003  -0.00006   0.00000  -0.00308  -0.00307   3.14009
   D20        0.00044  -0.00008   0.00000  -0.00480  -0.00480  -0.00437
   D21       -3.13732   0.00007   0.00000   0.00480   0.00481  -3.13251
   D22        0.05424   0.00017   0.00000   0.00257   0.00252   0.05676
   D23       -0.00005   0.00011   0.00000   0.00636   0.00636   0.00632
   D24       -3.09167   0.00021   0.00000   0.00413   0.00407  -3.08760
   D25        0.00145  -0.00001   0.00000   0.00010   0.00010   0.00154
   D26       -3.14145   0.00000   0.00000  -0.00007  -0.00007  -3.14152
   D27       -3.13860   0.00002   0.00000   0.00246   0.00247  -3.13614
   D28        0.00169   0.00003   0.00000   0.00229   0.00230   0.00399
   D29       -0.00064   0.00002   0.00000   0.00131   0.00132   0.00068
   D30       -3.14115   0.00004   0.00000   0.00235   0.00235  -3.13879
   D31        3.13955  -0.00001   0.00000  -0.00083  -0.00083   3.13872
   D32       -0.00096   0.00001   0.00000   0.00020   0.00020  -0.00076
   D33       -0.00094   0.00001   0.00000   0.00066   0.00067  -0.00027
   D34        3.13916   0.00001   0.00000   0.00078   0.00079   3.13995
   D35       -3.14131  -0.00004   0.00000  -0.00212  -0.00213   3.13974
   D36       -0.00121  -0.00003   0.00000  -0.00200  -0.00201  -0.00322
   D37       -3.13987   0.00001   0.00000   0.00013   0.00013  -3.13974
   D38        0.00085   0.00000   0.00000  -0.00070  -0.00070   0.00015
   D39        0.00065   0.00005   0.00000   0.00259   0.00258   0.00323
   D40        3.14137   0.00003   0.00000   0.00175   0.00175  -3.14006
   D41        3.14011  -0.00006   0.00000  -0.00297  -0.00297   3.13714
   D42       -0.08003   0.00010   0.00000   0.00245   0.00242  -0.07761
   D43       -0.00039  -0.00010   0.00000  -0.00547  -0.00548  -0.00586
   D44        3.06266   0.00006   0.00000  -0.00005  -0.00008   3.06257
   D45        0.00037   0.00000   0.00000  -0.00029  -0.00030   0.00008
   D46        3.14099   0.00000   0.00000  -0.00001  -0.00001   3.14098
   D47       -3.13972  -0.00001   0.00000  -0.00041  -0.00041  -3.14013
   D48        0.00089   0.00000   0.00000  -0.00012  -0.00013   0.00077
   D49        0.00028   0.00000   0.00000  -0.00003  -0.00003   0.00025
   D50        3.14113   0.00000   0.00000   0.00002   0.00002   3.14115
   D51       -3.14033   0.00000   0.00000  -0.00032  -0.00032  -3.14065
   D52        0.00052   0.00000   0.00000  -0.00027  -0.00027   0.00025
   D53       -0.00039   0.00000   0.00000   0.00001   0.00002  -0.00037
   D54        3.14046  -0.00001   0.00000  -0.00033  -0.00033   3.14013
   D55       -3.14124   0.00000   0.00000  -0.00004  -0.00004  -3.14127
   D56       -0.00039  -0.00001   0.00000  -0.00038  -0.00038  -0.00077
   D57        3.14025  -0.00002   0.00000  -0.00081  -0.00081   3.13944
   D58       -0.00015   0.00000   0.00000   0.00033   0.00033   0.00018
   D59       -0.00060  -0.00001   0.00000  -0.00047  -0.00046  -0.00106
   D60       -3.14100   0.00001   0.00000   0.00067   0.00067  -3.14032
   D61        0.39466   0.00037   0.00000   0.11377   0.11377   0.50843
   D62       -2.66634   0.00026   0.00000   0.10849   0.10850  -2.55784
   D63        1.21931   0.00078   0.00000   0.04929   0.04929   1.26861
         Item               Value     Threshold  Converged?
 Maximum Force            0.004809     0.000450     NO 
 RMS     Force            0.001040     0.000300     NO 
 Maximum Displacement     0.260785     0.001800     NO 
 RMS     Displacement     0.036810     0.001200     NO 
 Predicted change in Energy=-2.670532D-04
 GradGradGradGradGradGradGradGradGradGradGradGradGradGradGradGradGradGrad

                          Input orientation:                          
 ---------------------------------------------------------------------
 Center     Atomic      Atomic             Coordinates (Angstroms)
 Number     Number       Type             X           Y           Z
 ---------------------------------------------------------------------
      1          6           0       -2.524713   -2.166484    0.022537
      2          6           0       -3.163073   -0.922776   -0.053789
      3          6           0       -2.438507    0.264181   -0.098627
      4          6           0       -1.061709    0.143508   -0.062630
      5          6           0       -0.391911   -1.084640    0.010140
      6          6           0       -1.140026   -2.260393    0.054386
      7          1           0       -3.122636   -3.066782    0.054934
      8          1           0       -4.243313   -0.881877   -0.080323
      9          1           0       -2.911204    1.233342   -0.160282
     10          1           0       -0.652519   -3.223961    0.110855
     11          6           0        1.090508    0.634401   -0.052608
     12          6           0        2.279465    1.337937   -0.071322
     13          6           0        3.448819    0.585853   -0.017351
     14          6           0        3.412038   -0.811697    0.052094
     15          6           0        2.204215   -1.496818    0.069235
     16          6           0        1.020212   -0.763008    0.016135
     17          1           0        2.293816    2.416709   -0.126459
     18          1           0        4.403980    1.092426   -0.030027
     19          1           0        4.340876   -1.363586    0.092268
     20          1           0        2.182552   -2.576680    0.121631
     21          8           0       -0.166359    1.196664   -0.096198
     22          8           0       -1.854754    3.622643    0.092558
     23          1           0       -1.781591    3.799312    1.034946
     24          1           0       -1.143380    2.997929   -0.099542
 ---------------------------------------------------------------------
                    Distance matrix (angstroms):
                    1          2          3          4          5
     1  C    0.000000
     2  C    1.400049   0.000000
     3  C    2.435209   1.391356   0.000000
     4  C    2.735634   2.356431   1.382545   0.000000
     5  C    2.391523   2.776621   2.453508   1.400811   0.000000
     6  C    1.388233   2.427682   2.843051   2.408021   1.394285
     7  H    1.081249   2.147142   3.403957   3.816700   3.374575
     8  H    2.148111   1.081340   2.138015   3.342803   3.857797
     9  H    3.426604   2.173390   1.080055   2.148931   3.427670
    10  H    2.152014   3.409610   3.924381   3.396672   2.157488
    11  C    4.573885   4.529652   3.548679   2.207513   2.270816
    12  C    5.947260   5.893415   4.838694   3.548264   3.607182
    13  C    6.577236   6.781917   5.896667   4.532392   4.188378
    14  C    6.089445   6.576902   5.950555   4.576024   3.813960
    15  C    4.776336   5.399299   4.968315   3.657091   2.629306
    16  C    3.812647   4.186918   3.609851   2.272085   1.448300
    17  H    6.651772   6.398052   5.198945   4.053525   4.414888
    18  H    7.657025   7.830829   6.892773   5.547545   5.267048
    19  H    6.912728   7.518304   6.974675   5.610994   4.741711
    20  H    4.726142   5.598381   5.428921   4.237759   2.977662
    21  O    4.109342   3.670710   2.456051   1.382720   2.294892
    22  O    5.828185   4.732225   3.414175   3.571748   4.930032
    23  H    6.096550   5.039043   3.770104   3.884303   5.180196
    24  H    5.347349   4.410575   3.025017   2.855828   4.152602
                    6          7          8          9         10
     6  C    0.000000
     7  H    2.140328   0.000000
     8  H    3.398359   2.459272   0.000000
     9  H    3.922925   4.310695   2.501012   0.000000
    10  H    1.081348   2.475744   4.291352   5.004270   0.000000
    11  C    3.656031   5.609002   5.545224   4.047717   4.236959
    12  C    4.965552   6.971383   6.890159   5.192484   5.425922
    13  C    5.400348   7.518709   7.831161   6.394494   5.599294
    14  C    4.777030   6.912842   7.656818   6.649111   4.726849
    15  C    3.430337   5.553407   6.478513   5.802927   3.338515
    16  C    2.628736   4.740471   5.265751   4.412773   2.977128
    17  H    5.805107   7.709703   7.322353   5.337952   6.368231
    18  H    6.479547   8.599778   8.869953   7.317700   6.649754
    19  H    5.553916   7.655474   8.599426   7.707170   5.328727
    20  H    3.338275   5.328196   6.648675   6.367267   2.908044
    21  O    3.594711   5.190316   4.576258   2.745837   4.452094
    22  O    5.926416   6.808623   5.101549   2.624647   6.951380
    23  H    6.171964   7.064140   5.405315   3.047753   7.173222
    24  H    5.260576   6.381381   4.966170   2.498530   6.244768
                   11         12         13         14         15
    11  C    0.000000
    12  C    1.381641   0.000000
    13  C    2.359074   1.391378   0.000000
    14  C    2.737091   2.432875   1.399757   0.000000
    15  C    2.407755   2.839235   2.427767   1.388713   0.000000
    16  C    1.400864   2.450987   2.778251   2.392592   1.393972
    17  H    2.151750   1.080276   2.167481   3.421244   3.919441
    18  H    3.345055   2.139052   1.081254   2.148575   3.398971
    19  H    3.818093   3.402117   2.146647   1.081173   2.140935
    20  H    3.396169   3.920567   3.409452   2.152124   1.081349
    21  O    1.377590   2.450027   3.667263   4.106146   3.591912
    22  O    4.198241   4.726363   6.112451   6.885064   6.533349
    23  H    4.410033   4.875898   6.228230   7.014356   6.698376
    24  H    3.252495   3.804240   5.187790   5.940377   5.606927
                   16         17         18         19         20
    16  C    0.000000
    17  H    3.428265   0.000000
    18  H    3.859359   2.493154   0.000000
    19  H    3.375396   4.304524   2.459865   0.000000
    20  H    2.156749   5.000786   4.291862   2.476050   0.000000
    21  O    2.293662   2.746250   4.572006   5.187058   4.450051
    22  O    5.244541   4.325838   6.751945   7.952880   7.398127
    23  H    5.450032   4.457510   6.835400   8.064042   7.563191
    24  H    4.340410   3.486095   5.865916   7.009755   6.495152
                   21         22         23         24
    21  O    0.000000
    22  O    2.961702   0.000000
    23  H    3.265309   0.961592   0.000000
    24  H    2.049180   0.966034   1.528592   0.000000
 Stoichiometry    C12H10O2
 Framework group  C1[X(C12H10O2)]
 Deg. of freedom    66
 Full point group                 C1      NOp   1
 Largest Abelian subgroup         C1      NOp   1
 Largest concise Abelian subgroup C1      NOp   1
                         Standard orientation:                         
 ---------------------------------------------------------------------
 Center     Atomic      Atomic             Coordinates (Angstroms)
 Number     Number       Type             X           Y           Z
 ---------------------------------------------------------------------
      1          6           0       -2.544289   -2.135960    0.032317
      2          6           0       -3.169031   -0.885649   -0.048678
      3          6           0       -2.431527    0.293093   -0.098948
      4          6           0       -1.056108    0.157474   -0.063460
      5          6           0       -0.399762   -1.077637    0.013892
      6          6           0       -1.160691   -2.244921    0.063541
      7          1           0       -3.152024   -3.029503    0.068870
      8          1           0       -4.248778   -0.833013   -0.074591
      9          1           0       -2.893615    1.267119   -0.164260
     10          1           0       -0.683737   -3.213537    0.123632
     11          6           0        1.101369    0.624767   -0.057040
     12          6           0        2.297956    1.315135   -0.079529
     13          6           0        3.459033    0.550498   -0.023308
     14          6           0        3.406983   -0.846266    0.051935
     15          6           0        2.191732   -1.518020    0.072790
     16          6           0        1.015807   -0.771493    0.017525
     17          1           0        2.324093    2.393448   -0.139132
     18          1           0        4.419682    1.046507   -0.038775
     19          1           0        4.329744   -1.408141    0.093709
     20          1           0        2.158270   -2.597355    0.129661
     21          8           0       -0.149289    1.200598   -0.102033
     22          8           0       -1.810831    3.645709    0.077937
[...]
 01700620,-0.00112840,-0.02312710,-0.01768134,0.00008458,0.00033847,0.0
 0008457,-0.00000367,0.00005708,0.00012232,-0.00000212,-0.00050943,-0.0
 0027242,0.00000373,0.00005917,0.00074143,0.00000713,-0.11232579,-0.045
 22213,0.00059395,0.02743332,-0.02634926,0.00062938,-0.01172249,0.03151
 863,-0.00058798,-0.06568889,-0.02138229,-0.00014844,-0.25517166,0.1134
 6963,-0.00326183,0.72745587,0.00179341,-0.00638420,0.00022158,-0.00102
 526,0.00068137,-0.00003714,0.00241555,-0.00507762,0.00015383,0.0216252
 2,0.00265440,0.00023977,-0.03774286,-0.11164184,0.00043847,-0.03169651
 ,0.00269708,-0.00029820,-0.00127785,0.00022971,-0.00000933,0.00006611,
 0.00020704,-0.00000938,0.00142820,0.00016535,0.00000973,0.00086885,0.0
 0135214,-0.00006438,0.01714558,-0.27584454,0.00340160,-0.06481448,-0.0
 1848667,0.00001596,0.02310377,-0.04751980,0.00088150,0.02121277,0.0582
 7143,-0.00071512,0.07324664,-0.18995140,0.00265261,-0.08387787,0.63857
 244,0.00003357,0.00014183,0.00631543,0.00001129,0.00005207,-0.00105934
 ,-0.00011263,0.00013620,0.00317548,-0.00076258,0.00048737,0.00914821,-
 0.00065918,0.00067413,-0.06149740,0.00027535,-0.00019027,0.00047137,0.
 00001522,0.00001029,0.00071660,0.00000398,-0.00000691,-0.00035996,-0.0
 0002515,-0.00000253,-0.00008427,0.00002256,-0.00007522,-0.00336877,-0.
 00051594,0.00275380,-0.08103654,0.00126490,0.00027155,0.00885265,-0.00
 042596,0.00094430,-0.00537628,-0.00088532,-0.00099219,0.00770849,-0.00
 262885,0.00295655,-0.06212436,0.00575036,-0.00856096,0.15181917,-0.000
 08714,-0.00008476,0.00000031,-0.00001899,-0.00011335,0.00000146,0.0001
 6570,0.00018376,0.00000041,-0.00032895,-0.00060426,0.00000785,0.000028
 78,-0.00147162,0.00002172,-0.00035487,0.00024162,-0.00000747,-0.000049
 41,0.00000806,-0.00000016,0.00000085,0.00000987,-0.00000037,-0.0000398
 6,-0.00002337,-0.00000186,0.00001203,0.00000296,0.,0.00547250,-0.02850
 153,0.00056600,-0.05963271,-0.00503815,-0.00003959,0.00640367,0.027148
 34,-0.00050770,-0.00425433,0.00224333,-0.00011227,-0.00132237,0.000143
 98,-0.00000513,-0.00423224,-0.00136898,-0.00005645,0.05454839,-0.00005
 595,-0.00003179,0.00000028,-0.00007859,-0.00008149,0.00000193,0.000124
 01,0.00004297,0.00000240,-0.00049659,-0.00033001,-0.00000751,0.0003611
 1,-0.00052408,0.00000942,-0.00018743,0.00019403,-0.00000416,-0.0000307
 5,0.00000082,-0.00000073,-0.00000574,0.00000118,-0.00000013,-0.0000298
 7,0.00000513,-0.00000197,0.00002016,-0.00000090,0.00000025,0.00283812,
 -0.01269482,0.00035738,-0.00561867,-0.33947697,0.00604259,-0.00227585,
 -0.01085120,0.00024850,0.00294641,0.00108237,0.00016216,-0.00021257,0.
 00052709,-0.00003067,-0.00229475,0.00115163,0.00010106,0.00466394,0.35
 970858,-0.00000082,0.00000037,-0.00000072,0.00000026,0.00000075,0.0000
 7588,-0.00000123,-0.00000193,0.00000395,0.00001035,-0.00000008,-0.0003
 9805,-0.00000512,-0.00000628,-0.00009563,0.00000080,-0.00000069,0.0000
 5334,0.00000050,-0.00000085,-0.00003115,0.00000008,-0.00000009,0.00000
 213,0.00000084,0.00000196,-0.00001603,-0.00000055,0.00000009,0.0000150
 7,-0.00006431,0.00007629,0.00436491,-0.00002882,0.00627407,-0.03491496
 ,0.00007454,0.00036515,0.00268399,-0.00010635,0.00012228,0.00730794,0.
 00000104,-0.00001991,-0.00088968,-0.00005383,0.00006651,0.00616879,0.0
 0004247,-0.00668085,0.02416069,0.00003519,-0.00007133,0.00000125,-0.00
 004499,0.00009598,-0.00000124,-0.00010664,-0.00019133,0.00000463,0.000
 04125,0.00072777,-0.00000913,0.00016177,-0.00008611,0.00000463,-0.0000
 6305,-0.00002566,-0.00000049,-0.00000707,-0.00000756,-0.00000013,-0.00
 001782,-0.00001580,-0.00000050,0.00000304,-0.00000245,-0.00000003,-0.0
 0000147,-0.00001345,0.00000021,-0.00183512,0.00394922,-0.00011777,-0.0
 1937440,-0.01399044,0.00011474,-0.27436541,-0.11580522,0.00061282,0.00
 317814,0.00164987,-0.00003116,0.00171264,0.00028360,-0.00002755,0.0000
 4138,0.00064572,-0.00000448,0.00083729,0.00030956,0.00002684,0.2905324
 2,-0.00003369,0.00003974,-0.00000165,0.00002080,-0.00006776,0.00000144
 ,0.00007974,0.00015505,-0.00000814,0.00006061,-0.00039346,0.00000288,-
 0.00014193,0.00010600,-0.00000888,0.00004171,0.00000907,0.00000138,-0.
 00000258,-0.00000041,0.00000031,0.00000175,0.00001017,0.00000121,-0.00
 001000,-0.00000028,-0.00000011,0.00002465,0.00003322,-0.00000027,0.003
 06375,-0.00128246,0.00016679,0.01635704,0.01140281,-0.00004275,-0.1160
 7176,-0.12147636,0.00082152,-0.02909185,-0.00988161,0.00005616,0.00089
 539,-0.00566928,0.00021027,0.00114842,-0.00071558,0.00000313,-0.000517
 59,0.00076954,-0.00009642,0.12407324,0.12600806,0.00000397,-0.00000312
 ,-0.00002129,0.00000009,0.00000460,-0.00003275,-0.00000155,-0.00001120
 ,-0.00033854,0.00000255,0.00001428,-0.00013964,0.00001219,-0.00000521,
 -0.00034226,-0.00000412,-0.00000166,0.00003591,-0.00000021,0.00000046,
 0.00002208,-0.00000124,0.00000107,0.00008123,0.00000045,0.00000003,0.0
 0000161,-0.00000037,-0.00000066,0.00000946,-0.00012794,0.00015610,0.00
 680249,-0.00041669,-0.00022032,0.00354160,0.00063229,0.00086813,-0.036
 34099,0.00050109,0.00020660,0.00343878,-0.00003109,0.00020728,0.006127
 25,-0.00002539,0.00000995,-0.00104211,0.00004481,-0.00010870,-0.004309
 42,-0.00060084,-0.00103833,0.02526687,-0.00003954,-0.00002172,0.000000
 41,-0.00003999,-0.00003150,0.00000021,0.00002395,0.00016524,-0.0000020
 4,-0.00048000,-0.00033761,0.00000603,-0.00015000,0.00109435,-0.0000232
 7,-0.00001735,0.00010333,-0.00000127,-0.00003332,-0.00001055,-0.000000
 13,-0.00001014,-0.00000230,-0.00000036,-0.00004761,-0.00000819,-0.0000
 0023,0.00001250,-0.00003448,0.00000034,0.00004440,-0.00089954,0.000018
 71,0.00160041,-0.00068602,-0.00001480,0.00421708,-0.00239597,0.0000521
 1,-0.26493149,0.12123729,-0.00359918,-0.01923593,0.01564106,-0.0004098
 9,-0.00322460,-0.00389918,-0.00000897,0.00009819,-0.00020060,0.0000023
 2,0.00075903,0.00042858,0.00002096,0.28053287,0.00005876,-0.00004604,-
 0.00000106,0.00001038,0.00005449,0.00000084,-0.00003649,0.00009258,-0.
 00000346,-0.00022177,-0.00015751,-0.00000821,-0.00025433,0.00072040,-0
 .00000068,-0.00004328,-0.00000193,0.00000008,-0.00000695,0.00000161,-0
 .00000014,0.00000297,0.00000262,0.00000056,-0.00003077,-0.00000382,-0.
 00000117,-0.00000552,-0.00001909,0.00000146,-0.00130705,-0.00098290,0.
 00000075,-0.00125843,-0.00532849,0.00019116,0.02861490,-0.01165579,0.0
 0043181,0.12129984,-0.13031518,0.00242297,-0.01500219,0.01163136,-0.00
 024638,-0.00347896,-0.00086205,0.00010571,0.00131312,-0.00057864,0.000
 02063,-0.00041639,0.00068693,-0.00007998,-0.12990788,0.13577732,-0.000
 00044,-0.00000052,-0.00009209,-0.00000123,0.00000029,0.00006157,0.0000
 0135,-0.00000201,-0.00009625,0.00000686,-0.00000580,-0.00052243,-0.000
 00058,0.00000470,0.00069534,0.00000040,0.00000032,0.00000339,-0.000000
 14,-0.00000027,-0.00000186,-0.00000013,0.00000024,0.00002172,0.0000004
 9,-0.00000103,-0.00003244,-0.00000073,0.00000158,0.00007836,0.00002602
 ,0.00000309,-0.00053906,-0.00000976,0.00019673,0.00609377,-0.00047323,
 0.00022292,0.00260169,-0.00358237,0.00242276,-0.03570041,0.00009087,-0
 .00003923,0.00285795,-0.00001697,0.00010332,0.00725604,-0.00002113,0.0
 0001562,0.00032732,0.00003202,-0.00007736,-0.00386113,0.00391982,-0.00
 274901,0.02557694,-0.00014562,-0.00028374,0.00000256,0.00005586,-0.000
 02833,0.00000214,0.00001460,-0.00012779,-0.00000035,0.00071623,0.00065
 781,-0.00000291,0.00097377,-0.00105568,0.00005008,0.00007500,0.0004521
 0,-0.00000695,-0.00000815,0.00001087,-0.00000088,0.00001004,-0.0000362
 8,0.00000036,0.00001801,0.00000374,0.00000062,-0.00038269,-0.00031941,
 0.00000072,-0.00363195,0.00118171,-0.00009773,-0.00113965,0.00021971,-
 0.00000436,-0.00451353,-0.00222391,-0.00004620,0.00504916,-0.02815818,
 0.00046241,-0.06017286,-0.00246182,-0.00013059,0.00618251,0.02803569,-
 0.00042456,0.00013031,0.00000082,0.00000876,0.00002929,-0.00136003,0.0
 0002532,0.00075097,0.00046366,0.00002793,0.05734240,0.00007580,0.00024
 145,-0.00000224,0.00002432,0.00001108,-0.00000158,-0.00003486,0.000030
 98,0.00000132,-0.00022985,-0.00059500,0.00000459,-0.00097818,0.0004935
 7,-0.00007238,0.00058170,-0.00015017,0.00000386,0.00003891,0.00000304,
 0.00000193,0.00000129,0.00002154,-0.00000047,0.00000707,-0.00000771,0.
 00000046,0.00009494,0.00022878,0.00000056,0.00211319,0.00143385,0.0001
 0251,0.00024332,0.00046350,-0.00002398,-0.00312476,0.00092182,0.000078
 98,0.00226623,-0.01101493,0.00025473,-0.00360682,-0.33553267,0.0047489
 0,-0.00136181,-0.01248138,0.00024934,-0.00001644,-0.00009045,-0.000016
 33,0.00016757,-0.00063374,0.00001445,-0.00038235,0.00077738,-0.0000837
 2,0.00333862,0.35655573,-0.00000098,-0.00000604,0.00002373,0.00000098,
 0.,-0.00008235,-0.00000237,0.00000077,0.00015603,0.00001190,0.00001147
 ,-0.00012224,0.00005731,-0.00007225,-0.00341716,-0.00000483,0.00000075
 ,-0.00022313,-0.00000125,0.00000110,0.00007836,-0.00000022,-0.00000040
 ,0.00000925,-0.00000009,0.00000080,0.00001703,-0.00001404,0.00000431,0
 .00026006,-0.00011252,0.00012975,0.00729598,-0.00001614,-0.00002337,-0
 .00109885,-0.00003160,0.00008766,0.00737156,-0.00001223,0.00005598,0.0
 0373970,-0.00013148,0.00472271,-0.03710516,0.00006222,0.00045153,0.003
 52946,0.00000883,-0.00002259,-0.00110943,-0.00000269,-0.00000010,0.000
 13102,0.00004021,-0.00008213,-0.00436036,0.00017068,-0.00528274,0.0249
 2771,-0.00133446,-0.00552277,0.00010417,-0.00142683,0.00811279,-0.0001
 9545,-0.02964295,-0.04350629,0.00048174,-0.13074506,-0.07268153,0.0004
 1788,-0.00857052,-0.01936257,0.00018786,0.00134360,0.00173176,-0.00008
 806,0.00034062,-0.00017939,0.00000726,-0.00112662,-0.00203544,0.000011
 57,0.00324673,0.00024012,0.00002901,-0.00025583,-0.00056033,-0.0000009
 4,-0.18858079,0.08113844,-0.00222331,-0.04577626,0.01793331,-0.0007478
 8,0.00494861,-0.00771069,0.00015711,-0.00402544,0.00550518,-0.00013083
 ,0.00359521,0.00129733,0.00000562,-0.03181782,0.03424694,-0.00086021,0
 .00271457,0.00032470,0.00003676,-0.00153716,0.00103550,-0.00003757,0.0
 0016485,0.00022481,-0.00000173,-0.00135815,0.00079704,-0.00002317,0.43
 424630,0.00229679,-0.00478824,0.00008565,0.00473493,0.00631590,0.00004
 667,-0.01499675,0.00609272,-0.00016264,-0.02625274,-0.19455040,0.00182
 120,-0.01119323,-0.05940286,0.00099806,0.00388947,-0.00432064,0.000175
 73,-0.00009473,0.00003805,-0.00000760,0.00023207,0.00047729,0.00000585
 ,-0.00068618,-0.00008846,-0.00009676,-0.00152236,-0.00185810,0.0000181
 0,0.03445615,-0.14399579,0.00165291,-0.01086975,0.02230442,-0.00040492
 ,-0.00528189,-0.00034998,0.00008848,-0.00151555,-0.00289718,0.00001957
 ,-0.00057476,-0.00546999,0.00016051,0.02547072,-0.03760133,0.00095169,
 0.00182774,0.00120143,-0.00008605,-0.00122717,0.00088414,-0.00001188,0
 .00015908,0.00020344,-0.00001124,0.00175363,-0.00072754,0.00002748,-0.
 00366994,0.42264750,0.00001130,-0.00001601,-0.00125370,-0.00016251,0.0
 0013263,0.00570862,-0.00013306,-0.00053627,0.00036074,0.00014571,0.001
 67564,-0.05275565,0.00005898,0.00090777,0.01037484,-0.00011604,0.00011
 304,0.00446091,0.00000653,-0.00001007,-0.00039478,-0.00002652,-0.00001
 247,0.00090113,0.00008896,-0.00005201,-0.00348653,0.00001714,0.0000188
 3,0.00006297,-0.00198848,0.00209245,-0.05271348,-0.00003636,-0.0002251
 9,0.00039342,0.00007265,0.00010819,0.00554109,-0.00002223,0.00003293,-
 0.00122869,0.00003667,0.00015418,0.00447381,-0.00076730,0.00098852,0.0
 1073106,0.00001824,-0.00008829,-0.00344065,0.00000516,0.00001014,0.000
 96337,0.00000298,-0.00000906,-0.00036981,-0.00003305,0.00001539,-0.000
 02201,0.00261776,-0.00516239,0.07217550,0.00009875,-0.00000275,0.00003
 582,0.00052924,-0.00021622,-0.00005186,-0.00049446,0.00047849,-0.00036
 743,-0.00293611,-0.00193095,0.00008290,0.00005358,0.00075434,0.0000083
 8,-0.00012355,-0.00015725,-0.00001413,0.00004771,-0.00004520,0.0000116
 6,0.00005479,0.00010443,0.00000403,-0.00002511,0.00000959,0.00052770,0
 .00003427,0.00003761,-0.00000212,0.00213843,-0.00006927,0.00010895,-0.
 00043578,-0.00039796,0.00000184,0.00034671,-0.00004428,-0.00000173,-0.
 00001266,0.00021540,-0.00000655,-0.00001487,0.00018122,-0.00001420,-0.
 00025408,0.00014739,-0.00000854,0.00028679,0.00008505,0.00000417,-0.00
 001765,-0.00001254,0.00000279,-0.00000963,0.00004497,0.00000206,-0.000
 05060,0.00004851,0.00000060,-0.00021755,0.00412826,0.00025554,0.337357
 88,-0.00002227,-0.00047356,0.00004521,0.00104140,-0.00009688,-0.000044
 46,-0.00232494,-0.00019544,-0.00032662,0.00104142,0.00170229,0.0000922
 9,0.00013276,-0.00014629,0.00002271,-0.00004468,-0.00026657,0.00000206
 ,0.00003241,-0.00017155,0.00001132,-0.00009899,-0.00001520,-0.00000858
 ,0.00133257,-0.00064799,0.00032198,0.00000789,-0.00009081,-0.00000247,
 -0.00391742,0.00007081,-0.00015746,0.00026130,-0.00032379,0.00000742,0
 .00017073,0.00017156,0.00000505,0.00018896,-0.00001545,-0.00000306,-0.
 00019864,0.00000021,0.00001321,0.00047371,-0.00085868,0.00002682,0.000
 05690,0.00003264,-0.00000141,0.00010199,-0.00002118,0.00000323,0.00005
 879,-0.00000121,0.00000007,0.00005091,-0.00006282,0.00000299,0.0059965
 2,-0.00469595,-0.00024828,-0.22050749,0.40800201,-0.00006183,-0.000037
 17,-0.00006583,0.00000802,-0.00009481,0.00019416,-0.00025388,-0.000365
 92,0.00066917,0.00035606,0.00052279,-0.00025126,0.00004081,-0.00014078
 ,-0.00008421,0.00001087,0.00002720,0.00000185,-0.00000189,-0.00000795,
 -0.00003003,-0.00001967,-0.00002237,-0.00002841,0.00020695,0.00008235,
 -0.00104375,-0.00000341,-0.00000679,-0.00000017,-0.00031379,-0.0001360
 3,0.00018625,0.00008667,0.00006739,0.00011406,-0.00005590,0.00001359,0
 .00003928,-0.00000055,-0.00004339,0.00000417,0.00000967,-0.00004675,-0
 .00002694,0.00009339,-0.00006572,-0.00006758,-0.00004779,-0.00000558,-
 0.00014646,0.00000215,0.00000171,-0.00002322,0.00000151,-0.00000798,-0
 .00001006,0.00001218,-0.00001273,-0.00001012,0.00079557,-0.00102629,0.
 00170585,0.08722570,0.24143994,0.37254742,-0.00005345,-0.00003163,-0.0
 0001206,0.00008321,-0.00008275,0.00003575,-0.00018148,-0.00017466,0.00
 016237,0.00001645,-0.00000248,-0.00003029,0.00002556,-0.00001147,0.000
 00058,0.00000003,0.00002007,0.00000793,0.00000066,-0.00001563,-0.00000
 542,-0.00002135,-0.00001832,-0.00001040,0.00022139,0.00015962,-0.00032
 360,0.00000200,0.00000049,-0.00000051,0.00026038,0.00012436,-0.0000107
 6,0.00006850,0.00014359,-0.00004243,-0.00010531,-0.00003022,-0.0000145
 0,-0.00001415,-0.00004169,0.00000589,0.00004060,-0.00001311,0.00000556
 ,-0.00007163,0.00008241,0.00001109,-0.00009021,-0.00002334,0.00005857,
 -0.00000963,0.00001130,0.00000298,0.00000228,-0.00001546,0.00000127,-0
 .00000453,-0.00000481,-0.00000145,-0.00088772,0.00057722,-0.00033704,-
 0.03877229,-0.03536309,-0.07962340,0.03618714,-0.00005159,0.00002540,-
 0.00001732,-0.00000424,-0.00013159,0.00005700,-0.00021249,-0.00002078,
 0.00016813,-0.00023442,-0.00011599,-0.00008354,0.00000051,0.00001714,-
 0.00002166,0.00000600,0.00001962,-0.00000061,0.00000755,0.00001029,-0.
 00000775,0.00000359,-0.00000328,-0.00000926,0.00008494,-0.00026353,-0.
 00029749,-0.00000212,0.00001293,0.00000050,0.00039882,-0.00033031,0.00
 003555,-0.00008043,0.00000772,0.00002959,0.00002596,-0.00001240,0.0000
 0896,-0.00003047,0.00001903,0.00000063,0.00000734,-0.00002689,-0.00000
 597,0.00004114,0.00007587,-0.00001844,0.00004508,0.00003798,-0.0000318
 9,-0.00001841,0.00000114,-0.00000456,-0.00001069,0.00000773,-0.0000019
 9,0.00000138,0.00000821,-0.00000339,0.00044189,0.00019489,0.00039208,-
 0.00410220,-0.18628402,-0.22117733,0.01174768,0.20413914,0.00002725,0.
 00004098,-0.00000719,-0.00001981,0.00005137,-0.00001849,0.00014890,0.0
 0028091,-0.00002517,-0.00023106,-0.00033552,0.00001699,-0.00002910,0.0
 0007799,-0.00000480,-0.00000196,-0.00000084,-0.00000370,0.00000172,0.0
 0001077,0.00000465,0.00001567,0.00001168,0.00001265,-0.00014110,-0.000
 17344,0.00003812,0.00000082,0.00000711,0.00000440,0.00021557,0.0000304
 1,0.00001996,-0.00008096,-0.00007518,-0.00002046,0.00004224,0.00000356
 ,-0.00001405,-0.00000993,0.00003233,-0.00000327,-0.00000767,0.00002667
 ,-0.00000414,-0.00004608,0.00005989,0.00000184,0.00005261,0.00000179,0
 .00003053,-0.00000302,-0.00000315,0.00000668,-0.00000275,0.00000776,0.
 00000422,-0.00000676,0.00001043,0.00000312,-0.00035599,0.00065414,-0.0
 0001802,-0.04357414,-0.25324779,-0.33863889,0.04955193,0.24927571,0.34
 055497,-0.00013506,0.00008158,-0.00001634,-0.00075179,0.00022379,0.000
 01962,0.00084058,-0.00070723,0.00010787,0.00476170,0.00124358,-0.00008
 691,-0.00009009,-0.00129236,0.00000620,0.00025251,0.00018488,0.0000089
 5,-0.00006499,0.00006989,-0.00000565,-0.00003006,-0.00005747,-0.000003
 19,-0.00151012,-0.00081230,-0.00016232,-0.00004818,-0.00006715,0.00000
 310,-0.00328425,0.00076685,-0.00002714,0.00063803,0.00033356,0.0000077
 4,-0.00037709,0.00012748,-0.00000348,0.00003142,-0.00030199,0.00000740
 ,0.00006057,-0.00017985,0.00000140,0.00016808,-0.00036126,-0.00000953,
 -0.00028799,-0.00016318,-0.00000726,0.00004894,-0.00000053,-0.00000249
 ,0.00001306,-0.00004795,-0.00000066,0.00005959,-0.00005863,0.00000231,
 -0.00329734,-0.00164104,0.00028498,-0.29758379,0.25152925,-0.00846745,
 0.00330353,-0.00806482,-0.00554638,0.29728275,-0.00004636,0.00045056,-
 0.00000166,-0.00008663,-0.00043443,0.00000631,0.00080251,0.00013807,-0
 .00006791,-0.00389465,-0.00593278,0.00000622,-0.00026442,0.00085604,-0
 .00000478,0.00001299,0.00013890,-0.00000602,0.00002200,0.00007241,-0.0
 0000080,0.00012952,0.00010828,0.00000047,-0.00119664,-0.00014612,-0.00
 000133,0.00002878,0.00012635,-0.00000434,0.00688734,0.00015661,0.00012
 645,-0.00058653,0.00050931,-0.00002940,-0.00011100,-0.00038286,-0.0000
 0188,-0.00022025,0.00017058,-0.00000055,0.00024567,0.00012493,-0.00000
 990,-0.00087611,0.00136665,-0.00001930,-0.00014864,-0.00009505,0.00001
 468,-0.00013321,0.00003622,-0.00000056,-0.00005914,-0.00000321,0.00000
 054,-0.00011548,0.00010547,-0.00000426,-0.00379736,0.00038668,-0.00028
 173,0.22125084,-0.21561211,-0.01895737,0.02296189,-0.01738829,0.003252
 43,-0.24080512,0.23524779,0.00001170,0.00000665,0.00003864,0.00005577,
 -0.00003329,-0.00015152,-0.00001618,-0.00001710,-0.00026514,-0.0003903
 3,-0.00032867,0.00033101,0.00000009,0.00012063,0.00008624,-0.00001642,
 -0.00001205,0.00002985,0.00000522,-0.00000351,0.00001656,0.00000746,0.
 00001270,0.00002116,0.00000740,0.00011037,0.00053163,0.00000427,0.0000
 0815,0.00000615,0.00037787,0.00003323,-0.00047890,-0.00006476,-0.00003
 637,-0.00013912,0.00002994,-0.00001223,-0.00004330,-0.00000613,0.00002
 619,-0.00000441,0.00000378,0.00003031,0.00007752,-0.00006592,0.0000654
 6,0.00012202,0.00003519,0.00000778,0.00015763,-0.00000543,0.00000023,0
 .00002300,-0.00000270,0.00000551,0.00000758,-0.00000942,0.00000872,0.0
 0000779,-0.00018717,0.00026371,-0.00217003,-0.04423143,0.01204584,-0.0
 3503528,0.03056796,-0.02828694,-0.00193994,0.01388922,0.01598468,0.038
 77085\\0.00000010,-0.00000189,-0.00000155,0.00000010,-0.00000238,-0.00
 000047,-0.00000048,-0.00000139,0.00000022,-0.00000029,0.00000651,-0.00
 000176,-0.00000212,-0.00000119,-0.00000254,0.00000223,-0.00000047,0.00
 000060,0.00000160,-0.00000156,-0.00000173,0.00000039,-0.00000220,-0.00
 000114,-0.00000181,-0.00000272,-0.00000044,0.00000194,-0.00000014,-0.0
 0000135,-0.00001556,0.00001418,0.00000124,0.00000002,-0.00000021,0.000
 00029,0.00000009,-0.00000007,0.00000068,0.00000372,0.00000421,0.,-0.00
 000408,0.00000121,-0.00000065,0.00000836,-0.00000405,0.00000208,-0.000
 00019,0.00000149,0.00000145,-0.00000085,0.00000322,0.00000119,0.000000
 53,0.00000236,0.00000023,0.00000163,0.00000133,-0.00000035,0.00001166,
 -0.00001337,0.00000104,-0.00000194,-0.00000169,0.00000327,-0.00000266,
 -0.00000030,0.00000081,-0.00000239,-0.00000088,-0.00000114\\\@


 ... SUBJECTS WHICH DISCLOSE THEIR FULL POWER, MEANING AND BEAUTY AS SOON
 AS THEY ARE PRESENTED TO THE MIND HAVE VERY LITTLE OF THOSE QUALITIES
 TO DISCLOSE.
                           -- CHARLES DUTTON (1882)
 Job cpu time:       4 days 14 hours  3 minutes 28.3 seconds.
 File lengths (MBytes):  RWF=   1062 Int=      0 D2E=      0 Chk=     55 Scr=      1
 Normal termination of Gaussian 09 at Sun Oct  3 13:46:08 2021.
