 Entering Gaussian System, Link 0=/opt/cluster/programs/g09/g09_d.01/g09//g09
 Input=/home/kaeser/nnprojects/hydra_challenge/b3lypd3/2406-25-9.com
 Output=/scratch/kaeser/2406-25-9/2406-25-9.out
 Initial command:
 /opt/cluster/programs/g09/g09_d.01/g09/l1.exe "/scratch/kaeser/2406-25-9/Gau-188656.inp" -scrdir="/scratch/kaeser/2406-25-9/"
 Entering Link 1 = /opt/cluster/programs/g09/g09_d.01/g09/l1.exe PID=    188662.
  
 Copyright (c) 1988,1990,1992,1993,1995,1998,2003,2009,2013,
            Gaussian, Inc.  All Rights Reserved.
  
 This is part of the Gaussian(R) 09 program.  It is based on
 the Gaussian(R) 03 system (copyright 2003, Gaussian, Inc.),
 the Gaussian(R) 98 system (copyright 1998, Gaussian, Inc.),
 the Gaussian(R) 94 system (copyright 1995, Gaussian, Inc.),
 the Gaussian 92(TM) system (copyright 1992, Gaussian, Inc.),
 the Gaussian 90(TM) system (copyright 1990, Gaussian, Inc.),
 the Gaussian 88(TM) system (copyright 1988, Gaussian, Inc.),
 the Gaussian 86(TM) system (copyright 1986, Carnegie Mellon
 University), and the Gaussian 82(TM) system (copyright 1983,
 Carnegie Mellon University). Gaussian is a federally registered
 trademark of Gaussian, Inc.
  
 This software contains proprietary and confidential information,
 including trade secrets, belonging to Gaussian, Inc.
  
 This software is provided under written license and may be
 used, copied, transmitted, or stored only in accord with that
 written license.
  
 The following legend is applicable only to US Government
 contracts under FAR:
  
                    RESTRICTED RIGHTS LEGEND
  
 Use, reproduction and disclosure by the US Government is
 subject to restrictions as set forth in subparagraphs (a)
 and (c) of the Commercial Computer Software - Restricted
 Rights clause in FAR 52.227-19.
  
 Gaussian, Inc.
 340 Quinnipiac St., Bldg. 40, Wallingford CT 06492
  
  
 ---------------------------------------------------------------
 Warning -- This program may not be used in any manner that
 competes with the business of Gaussian, Inc. or will provide
 assistance to any competitor of Gaussian, Inc.  The licensee
 of this program is prohibited from giving any competitor of
 Gaussian, Inc. access to this program.  By using this program,
 the user acknowledges that Gaussian, Inc. is engaged in the
 business of creating and licensing software in the field of
 computational chemistry and represents and warrants to the
 licensee that it is not a competitor of Gaussian, Inc. and that
 it will not use this program in any manner prohibited above.
 ---------------------------------------------------------------
  

 Cite this work as:
 Gaussian 09, Revision D.01,
 M. J. Frisch, G. W. Trucks, H. B. Schlegel, G. E. Scuseria, 
 M. A. Robb, J. R. Cheeseman, G. Scalmani, V. Barone, B. Mennucci, 
 G. A. Petersson, H. Nakatsuji, M. Caricato, X. Li, H. P. Hratchian, 
 A. F. Izmaylov, J. Bloino, G. Zheng, J. L. Sonnenberg, M. Hada, 
 M. Ehara, K. Toyota, R. Fukuda, J. Hasegawa, M. Ishida, T. Nakajima, 
 Y. Honda, O. Kitao, H. Nakai, T. Vreven, J. A. Montgomery, Jr., 
 J. E. Peralta, F. Ogliaro, M. Bearpark, J. J. Heyd, E. Brothers, 
 K. N. Kudin, V. N. Staroverov, T. Keith, R. Kobayashi, J. Normand, 
 K. Raghavachari, A. Rendell, J. C. Burant, S. S. Iyengar, J. Tomasi, 
 M. Cossi, N. Rega, J. M. Millam, M. Klene, J. E. Knox, J. B. Cross, 
 V. Bakken, C. Adamo, J. Jaramillo, R. Gomperts, R. E. Stratmann, 
 O. Yazyev, A. J. Austin, R. Cammi, C. Pomelli, J. W. Ochterski, 
 R. L. Martin, K. Morokuma, V. G. Zakrzewski, G. A. Voth, 
 P. Salvador, J. J. Dannenberg, S. Dapprich, A. D. Daniels, 
 O. Farkas, J. B. Foresman, J. V. Ortiz, J. Cioslowski, 
 and D. J. Fox, Gaussian, Inc., Wallingford CT, 2013.
 
 ******************************************
 Gaussian 09:  ES64L-G09RevD.01 24-Apr-2013
                30-Sep-2021 
 ******************************************
 %chk=2406-25-9.chk
 %mem=4GB
 %nprocshared=8
 Will use up to    8 processors via shared memory.
 ----------------------------------------------------------------------
 # opt freq b3lyp/aug-cc-pvtz EmpiricalDispersion=GD3 geom=connectivity
 ----------------------------------------------------------------------
 1/14=-1,18=20,19=15,26=3,38=1,57=2/1,3;
 2/9=110,12=2,17=6,18=5,40=1/2;
 3/5=16,6=1,7=10,11=2,16=1,25=1,30=1,71=1,74=-5,124=31/1,2,3;
 4//1;
 5/5=2,38=5/2;
 6/7=2,8=2,9=2,10=2,28=1/1;
 7//1,2,3,16;
 1/14=-1,18=20,19=15,26=3/3(2);
 2/9=110/2;
 99//99;
 2/9=110/2;
 3/5=16,6=1,7=10,11=2,16=1,25=1,30=1,71=1,74=-5,124=31/1,2,3;
 4/5=5,16=3,69=1/1;
 5/5=2,38=5/2;
 7//1,2,3,16;
 1/14=-1,18=20,19=15,26=3/3(-5);
 2/9=110/2;
 6/7=2,8=2,9=2,10=2,19=2,28=1/1;
 99/9=1/99;
 -------------------
 Title Card Required
 -------------------
 Symbolic Z-matrix:
 Charge =  0 Multiplicity = 2
 O                     0.06394  -1.01849   0.20999 
 N                    -0.71027  -0.04988  -0.10229 
 C                    -2.13636  -0.31243  -0.10631 
 H                    -2.63862   0.40952  -0.74463 
 H                    -2.28935  -1.31839  -0.47935 
 H                    -2.53969  -0.23652   0.90606 
 C                    -0.24746   1.31367   0.09737 
 H                     0.81817   1.34324  -0.09987 
 H                    -0.78216   1.9766   -0.57755 
 H                    -0.43853   1.62542   1.12719 
 O                     2.6974   -0.07351  -0.2014 
 H                     1.86819  -0.5517   -0.04699 
 H                     3.186    -0.17043   0.61612 
 
 Add virtual bond connecting atoms H12        and O1         Dist= 3.56D+00.

 GradGradGradGradGradGradGradGradGradGradGradGradGradGradGradGradGradGrad
 Berny optimization.
 Initialization pass.
                           ----------------------------
                           !    Initial Parameters    !
                           ! (Angstroms and Degrees)  !
 --------------------------                            --------------------------
 ! Name  Definition              Value          Derivative Info.                !
 --------------------------------------------------------------------------------
 ! R1    R(1,2)                  1.2787         estimate D2E/DX2                !
 ! R2    R(1,12)                 1.8813         estimate D2E/DX2                !
 ! R3    R(2,3)                  1.4501         estimate D2E/DX2                !
 ! R4    R(2,7)                  1.4537         estimate D2E/DX2                !
 ! R5    R(3,4)                  1.0867         estimate D2E/DX2                !
 ! R6    R(3,5)                  1.0838         estimate D2E/DX2                !
 ! R7    R(3,6)                  1.0924         estimate D2E/DX2                !
 ! R8    R(7,8)                  1.0841         estimate D2E/DX2                !
 ! R9    R(7,9)                  1.0867         estimate D2E/DX2                !
 ! R10   R(7,10)                 1.0928         estimate D2E/DX2                !
 ! R11   R(11,12)                0.9696         estimate D2E/DX2                !
 ! R12   R(11,13)                0.9573         estimate D2E/DX2                !
 ! A1    A(2,1,12)             111.0605         estimate D2E/DX2                !
 ! A2    A(1,2,3)              117.3209         estimate D2E/DX2                !
 ! A3    A(1,2,7)              118.96           estimate D2E/DX2                !
 ! A4    A(3,2,7)              118.9017         estimate D2E/DX2                !
 ! A5    A(2,3,4)              109.6264         estimate D2E/DX2                !
 ! A6    A(2,3,5)              107.9297         estimate D2E/DX2                !
 ! A7    A(2,3,6)              110.3633         estimate D2E/DX2                !
 ! A8    A(4,3,5)              110.4396         estimate D2E/DX2                !
 ! A9    A(4,3,6)              109.1198         estimate D2E/DX2                !
 ! A10   A(5,3,6)              109.3525         estimate D2E/DX2                !
 ! A11   A(2,7,8)              108.2719         estimate D2E/DX2                !
 ! A12   A(2,7,9)              109.2844         estimate D2E/DX2                !
 ! A13   A(2,7,10)             109.959          estimate D2E/DX2                !
 ! A14   A(8,7,9)              110.7331         estimate D2E/DX2                !
 ! A15   A(8,7,10)             109.6042         estimate D2E/DX2                !
 ! A16   A(9,7,10)             108.9784         estimate D2E/DX2                !
 ! A17   A(12,11,13)           104.5105         estimate D2E/DX2                !
 ! A18   A(1,12,11)            164.6496         estimate D2E/DX2                !
 ! D1    D(12,1,2,3)           172.9351         estimate D2E/DX2                !
 ! D2    D(12,1,2,7)           -31.8866         estimate D2E/DX2                !
 ! D3    D(2,1,12,11)           12.4722         estimate D2E/DX2                !
 ! D4    D(1,2,3,4)           -157.3602         estimate D2E/DX2                !
 ! D5    D(1,2,3,5)            -37.0243         estimate D2E/DX2                !
 ! D6    D(1,2,3,6)             82.422          estimate D2E/DX2                !
 ! D7    D(7,2,3,4)             47.4466         estimate D2E/DX2                !
 ! D8    D(7,2,3,5)            167.7825         estimate D2E/DX2                !
 ! D9    D(7,2,3,6)            -72.7711         estimate D2E/DX2                !
 ! D10   D(1,2,7,8)             34.8487         estimate D2E/DX2                !
 ! D11   D(1,2,7,9)            155.5458         estimate D2E/DX2                !
 ! D12   D(1,2,7,10)           -84.8751         estimate D2E/DX2                !
 ! D13   D(3,2,7,8)           -170.3671         estimate D2E/DX2                !
 ! D14   D(3,2,7,9)            -49.6701         estimate D2E/DX2                !
 ! D15   D(3,2,7,10)            69.9091         estimate D2E/DX2                !
 ! D16   D(13,11,12,1)         114.4537         estimate D2E/DX2                !
 --------------------------------------------------------------------------------
 Trust Radius=3.00D-01 FncErr=1.00D-07 GrdErr=1.00D-06
 Number of steps in this run=     56 maximum allowed number of steps=    100.
 GradGradGradGradGradGradGradGradGradGradGradGradGradGradGradGradGradGrad

                          Input orientation:                          
 ---------------------------------------------------------------------
 Center     Atomic      Atomic             Coordinates (Angstroms)
 Number     Number       Type             X           Y           Z
 ---------------------------------------------------------------------
      1          8           0        0.063944   -1.018494    0.209987
      2          7           0       -0.710270   -0.049881   -0.102292
      3          6           0       -2.136357   -0.312430   -0.106306
      4          1           0       -2.638619    0.409517   -0.744631
      5          1           0       -2.289347   -1.318386   -0.479350
      6          1           0       -2.539693   -0.236518    0.906055
      7          6           0       -0.247459    1.313665    0.097369
      8          1           0        0.818167    1.343237   -0.099868
      9          1           0       -0.782164    1.976604   -0.577548
     10          1           0       -0.438526    1.625419    1.127190
     11          8           0        2.697404   -0.073505   -0.201400
     12          1           0        1.868189   -0.551698   -0.046991
     13          1           0        3.185996   -0.170428    0.616117
 ---------------------------------------------------------------------
                    Distance matrix (angstroms):
                    1          2          3          4          5
     1  O    0.000000
     2  N    1.278725   0.000000
     3  C    2.332358   1.450059   0.000000
     4  H    3.202243   2.083789   1.086708   0.000000
     5  H    2.470445   2.060282   1.083751   1.782698   0.000000
     6  H    2.806229   2.097233   1.092391   1.775362   1.775516
     7  C    2.355551   1.453725   2.500721   2.691485   3.380770
     8  H    2.498527   2.068068   3.386811   3.638258   4.109122
     9  H    3.210408   2.082709   2.701034   2.435180   3.624666
    10  H    2.843240   2.095734   2.856467   3.134093   3.830470
    11  O    2.827960   3.409197   4.840596   5.385309   5.147297
    12  H    1.881286   2.627419   4.012126   4.660682   4.249688
    13  H    3.260578   3.963777   5.373035   6.009502   5.700635
                    6          7          8          9         10
     6  H    0.000000
     7  C    2.882946   0.000000
     8  H    3.844832   1.084129   0.000000
     9  H    3.191848   1.086697   1.786167   0.000000
    10  H    2.816134   1.092808   1.778925   1.774133   0.000000
    11  O    5.355391   3.268902   2.355631   4.056085   3.805989
    12  H    4.520737   2.824250   2.167053   3.701104   3.382229
    13  H    5.733406   3.776274   2.900074   4.666999   4.077183
                   11         12         13
    11  O    0.000000
    12  H    0.969592   0.000000
    13  H    0.957314   1.523711   0.000000
 Stoichiometry    C2H8NO2(2)
 Framework group  C1[X(C2H8NO2)]
 Deg. of freedom    33
 Full point group                 C1      NOp   1
 Largest Abelian subgroup         C1      NOp   1
 Largest concise Abelian subgroup C1      NOp   1
                         Standard orientation:                         
 ---------------------------------------------------------------------
 Center     Atomic      Atomic             Coordinates (Angstroms)
 Number     Number       Type             X           Y           Z
 ---------------------------------------------------------------------
      1          8           0        0.063944   -1.018494    0.209987
      2          7           0       -0.710270   -0.049881   -0.102292
      3          6           0       -2.136357   -0.312430   -0.106306
      4          1           0       -2.638619    0.409517   -0.744631
      5          1           0       -2.289347   -1.318386   -0.479350
      6          1           0       -2.539693   -0.236518    0.906055
      7          6           0       -0.247459    1.313665    0.097369
      8          1           0        0.818167    1.343237   -0.099868
      9          1           0       -0.782164    1.976604   -0.577548
     10          1           0       -0.438526    1.625419    1.127190
     11          8           0        2.697404   -0.073505   -0.201400
     12          1           0        1.868189   -0.551698   -0.046991
     13          1           0        3.185996   -0.170428    0.616117
 ---------------------------------------------------------------------
 Rotational constants (GHZ):      9.2646596      2.3149620      1.9275425
 Standard basis: Aug-CC-pVTZ (5D, 7F)
 There are   475 symmetry adapted cartesian basis functions of A   symmetry.
 There are   414 symmetry adapted basis functions of A   symmetry.
   414 basis functions,   576 primitive gaussians,   475 cartesian basis functions
    22 alpha electrons       21 beta electrons
       nuclear repulsion energy       189.9984528019 Hartrees.
 NAtoms=   13 NActive=   13 NUniq=   13 SFac= 1.00D+00 NAtFMM=   60 NAOKFM=F Big=F
 Integral buffers will be    131072 words long.
 Raffenetti 2 integral format.
 Two-electron integral symmetry is turned on.
 Nuclear repulsion after empirical dispersion term =      189.9913247911 Hartrees.
 One-electron integrals computed using PRISM.
 NBasis=   414 RedAO= T EigKep=  1.71D-05  NBF=   414
 NBsUse=   414 1.00D-06 EigRej= -1.00D+00 NBFU=   414
 ExpMin= 2.53D-02 ExpMax= 1.53D+04 ExpMxC= 5.22D+02 IAcc=3 IRadAn=         5 AccDes= 0.00D+00
 Harris functional with IExCor=  402 and IRadAn=       5 diagonalized for initial guess.
 HarFok:  IExCor=  402 AccDes= 0.00D+00 IRadAn=         5 IDoV= 1 UseB2=F ITyADJ=14
 ICtDFT=  3500011 ScaDFX=  1.000000  1.000000  1.000000  1.000000
 FoFCou: FMM=F IPFlag=           0 FMFlag=      100000 FMFlg1=           0
         NFxFlg=           0 DoJE=T BraDBF=F KetDBF=T FulRan=T
         wScrn=  0.000000 ICntrl=     500 IOpCl=  0 I1Cent=   200000004 NGrid=           0
         NMat0=    1 NMatS0=      1 NMatT0=    0 NMatD0=    1 NMtDS0=    0 NMtDT0=    0
 Petite list used in FoFCou.
 Initial guess <Sx>= 0.0000 <Sy>= 0.0000 <Sz>= 0.5000 <S**2>= 0.7500 S= 0.5000
 Requested convergence on RMS density matrix=1.00D-08 within 128 cycles.
 Requested convergence on MAX density matrix=1.00D-06.
 Requested convergence on             energy=1.00D-06.
 No special actions if energy rises.
 SCF Done:  E(UB3LYP) =  -286.288964119     A.U. after   13 cycles
            NFock= 13  Conv=0.74D-08     -V/T= 2.0059
 <Sx>= 0.0000 <Sy>= 0.0000 <Sz>= 0.5000 <S**2>= 0.7547 S= 0.5023
 <L.S>= 0.000000000000E+00
 Annihilation of the first spin contaminant:
 S**2 before annihilation     0.7547,   after     0.7500

 **********************************************************************

            Population analysis using the SCF density.

 **********************************************************************

 Orbital symmetries:
 Alpha Orbitals:
       Occupied  (A) (A) (A) (A) (A) (A) (A) (A) (A) (A) (A) (A)
                 (A) (A) (A) (A) (A) (A) (A) (A) (A) (A)
       Virtual   (A) (A) (A) (A) (A) (A) (A) (A) (A) (A) (A) (A)
                 (A) (A) (A) (A) (A) (A) (A) (A) (A) (A) (A) (A)
                 (A) (A) (A) (A) (A) (A) (A) (A) (A) (A) (A) (A)
                 (A) (A) (A) (A) (A) (A) (A) (A) (A) (A) (A) (A)
                 (A) (A) (A) (A) (A) (A) (A) (A) (A) (A) (A) (A)
                 (A) (A) (A) (A) (A) (A) (A) (A) (A) (A) (A) (A)
                 (A) (A) (A) (A) (A) (A) (A) (A) (A) (A) (A) (A)
                 (A) (A) (A) (A) (A) (A) (A) (A) (A) (A) (A) (A)
                 (A) (A) (A) (A) (A) (A) (A) (A) (A) (A) (A) (A)
                 (A) (A) (A) (A) (A) (A) (A) (A) (A) (A) (A) (A)
                 (A) (A) (A) (A) (A) (A) (A) (A) (A) (A) (A) (A)
                 (A) (A) (A) (A) (A) (A) (A) (A) (A) (A) (A) (A)
                 (A) (A) (A) (A) (A) (A) (A) (A) (A) (A) (A) (A)
                 (A) (A) (A) (A) (A) (A) (A) (A) (A) (A) (A) (A)
                 (A) (A) (A) (A) (A) (A) (A) (A) (A) (A) (A) (A)
                 (A) (A) (A) (A) (A) (A) (A) (A) (A) (A) (A) (A)
                 (A) (A) (A) (A) (A) (A) (A) (A) (A) (A) (A) (A)
                 (A) (A) (A) (A) (A) (A) (A) (A) (A) (A) (A) (A)
                 (A) (A) (A) (A) (A) (A) (A) (A) (A) (A) (A) (A)
                 (A) (A) (A) (A) (A) (A) (A) (A) (A) (A) (A) (A)
                 (A) (A) (A) (A) (A) (A) (A) (A) (A) (A) (A) (A)
                 (A) (A) (A) (A) (A) (A) (A) (A) (A) (A) (A) (A)
                 (A) (A) (A) (A) (A) (A) (A) (A) (A) (A) (A) (A)
                 (A) (A) (A) (A) (A) (A) (A) (A) (A) (A) (A) (A)
                 (A) (A) (A) (A) (A) (A) (A) (A) (A) (A) (A) (A)
                 (A) (A) (A) (A) (A) (A) (A) (A) (A) (A) (A) (A)
                 (A) (A) (A) (A) (A) (A) (A) (A) (A) (A) (A) (A)
                 (A) (A) (A) (A) (A) (A) (A) (A) (A) (A) (A) (A)
                 (A) (A) (A) (A) (A) (A) (A) (A) (A) (A) (A) (A)
                 (A) (A) (A) (A) (A) (A) (A) (A) (A) (A) (A) (A)
                 (A) (A) (A) (A) (A) (A) (A) (A) (A) (A) (A) (A)
                 (A) (A) (A) (A) (A) (A) (A) (A) (A) (A) (A) (A)
                 (A) (A) (A) (A) (A) (A) (A) (A)
 Beta  Orbitals:
       Occupied  (A) (A) (A) (A) (A) (A) (A) (A) (A) (A) (A) (A)
                 (A) (A) (A) (A) (A) (A) (A) (A) (A)
       Virtual   (A) (A) (A) (A) (A) (A) (A) (A) (A) (A) (A) (A)
                 (A) (A) (A) (A) (A) (A) (A) (A) (A) (A) (A) (A)
                 (A) (A) (A) (A) (A) (A) (A) (A) (A) (A) (A) (A)
                 (A) (A) (A) (A) (A) (A) (A) (A) (A) (A) (A) (A)
                 (A) (A) (A) (A) (A) (A) (A) (A) (A) (A) (A) (A)
                 (A) (A) (A) (A) (A) (A) (A) (A) (A) (A) (A) (A)
                 (A) (A) (A) (A) (A) (A) (A) (A) (A) (A) (A) (A)
                 (A) (A) (A) (A) (A) (A) (A) (A) (A) (A) (A) (A)
                 (A) (A) (A) (A) (A) (A) (A) (A) (A) (A) (A) (A)
                 (A) (A) (A) (A) (A) (A) (A) (A) (A) (A) (A) (A)
                 (A) (A) (A) (A) (A) (A) (A) (A) (A) (A) (A) (A)
                 (A) (A) (A) (A) (A) (A) (A) (A) (A) (A) (A) (A)
                 (A) (A) (A) (A) (A) (A) (A) (A) (A) (A) (A) (A)
                 (A) (A) (A) (A) (A) (A) (A) (A) (A) (A) (A) (A)
                 (A) (A) (A) (A) (A) (A) (A) (A) (A) (A) (A) (A)
                 (A) (A) (A) (A) (A) (A) (A) (A) (A) (A) (A) (A)
                 (A) (A) (A) (A) (A) (A) (A) (A) (A) (A) (A) (A)
                 (A) (A) (A) (A) (A) (A) (A) (A) (A) (A) (A) (A)
                 (A) (A) (A) (A) (A) (A) (A) (A) (A) (A) (A) (A)
                 (A) (A) (A) (A) (A) (A) (A) (A) (A) (A) (A) (A)
                 (A) (A) (A) (A) (A) (A) (A) (A) (A) (A) (A) (A)
                 (A) (A) (A) (A) (A) (A) (A) (A) (A) (A) (A) (A)
                 (A) (A) (A) (A) (A) (A) (A) (A) (A) (A) (A) (A)
                 (A) (A) (A) (A) (A) (A) (A) (A) (A) (A) (A) (A)
                 (A) (A) (A) (A) (A) (A) (A) (A) (A) (A) (A) (A)
                 (A) (A) (A) (A) (A) (A) (A) (A) (A) (A) (A) (A)
                 (A) (A) (A) (A) (A) (A) (A) (A) (A) (A) (A) (A)
                 (A) (A) (A) (A) (A) (A) (A) (A) (A) (A) (A) (A)
                 (A) (A) (A) (A) (A) (A) (A) (A) (A) (A) (A) (A)
                 (A) (A) (A) (A) (A) (A) (A) (A) (A) (A) (A) (A)
                 (A) (A) (A) (A) (A) (A) (A) (A) (A) (A) (A) (A)
                 (A) (A) (A) (A) (A) (A) (A) (A) (A) (A) (A) (A)
                 (A) (A) (A) (A) (A) (A) (A) (A) (A)
 The electronic state is 2-A.
 Alpha  occ. eigenvalues --  -19.15081 -19.10611 -14.43533 -10.22132 -10.21462
 Alpha  occ. eigenvalues --   -1.12025  -0.99008  -0.86261  -0.75506  -0.62642
 Alpha  occ. eigenvalues --   -0.52656  -0.51950  -0.50922  -0.50055  -0.43066
 Alpha  occ. eigenvalues --   -0.42908  -0.41054  -0.39454  -0.37189  -0.29729
 Alpha  occ. eigenvalues --   -0.28630  -0.22041
 Alpha virt. eigenvalues --   -0.02041   0.00035   0.00800   0.01131   0.02587
 Alpha virt. eigenvalues --    0.02947   0.03556   0.04548   0.05617   0.06245
 Alpha virt. eigenvalues --    0.07360   0.07842   0.08251   0.09091   0.09483
 Alpha virt. eigenvalues --    0.09679   0.10422   0.11181   0.11539   0.11903
 Alpha virt. eigenvalues --    0.12814   0.13123   0.13391   0.13924   0.15661
 Alpha virt. eigenvalues --    0.16504   0.16843   0.17718   0.18007   0.20531
 Alpha virt. eigenvalues --    0.21014   0.21444   0.21951   0.23103   0.23871
 Alpha virt. eigenvalues --    0.25132   0.25767   0.26357   0.26773   0.27416
 Alpha virt. eigenvalues --    0.27845   0.28310   0.28770   0.29106   0.29359
 Alpha virt. eigenvalues --    0.29989   0.30636   0.31039   0.31900   0.32126
 Alpha virt. eigenvalues --    0.33209   0.33824   0.34420   0.34828   0.35913
 Alpha virt. eigenvalues --    0.36833   0.37062   0.38047   0.38948   0.39116
 Alpha virt. eigenvalues --    0.39944   0.41171   0.41712   0.42676   0.43411
 Alpha virt. eigenvalues --    0.43773   0.44684   0.45362   0.47746   0.48185
 Alpha virt. eigenvalues --    0.49381   0.50833   0.51536   0.52961   0.54164
 Alpha virt. eigenvalues --    0.55590   0.56260   0.59201   0.59818   0.60691
 Alpha virt. eigenvalues --    0.62863   0.63371   0.65003   0.65237   0.65809
 Alpha virt. eigenvalues --    0.66794   0.67079   0.68230   0.68625   0.69004
 Alpha virt. eigenvalues --    0.71426   0.72051   0.72791   0.73167   0.74029
 Alpha virt. eigenvalues --    0.74949   0.75176   0.76484   0.77534   0.77895
 Alpha virt. eigenvalues --    0.79526   0.80539   0.80874   0.82103   0.82648
 Alpha virt. eigenvalues --    0.83689   0.85399   0.85908   0.85992   0.88182
 Alpha virt. eigenvalues --    0.88784   0.90354   0.91349   0.91810   0.92333
 Alpha virt. eigenvalues --    0.94154   0.94690   0.95527   0.96049   0.96677
 Alpha virt. eigenvalues --    0.97960   0.99098   0.99424   1.00329   1.01348
 Alpha virt. eigenvalues --    1.02916   1.05198   1.05645   1.06991   1.07596
 Alpha virt. eigenvalues --    1.08965   1.09581   1.10259   1.11640   1.13187
 Alpha virt. eigenvalues --    1.13836   1.14140   1.15311   1.17032   1.17911
 Alpha virt. eigenvalues --    1.18858   1.19798   1.21162   1.22628   1.23467
 Alpha virt. eigenvalues --    1.25125   1.26302   1.28693   1.29367   1.31247
 Alpha virt. eigenvalues --    1.32392   1.33095   1.33960   1.36644   1.37945
 Alpha virt. eigenvalues --    1.38980   1.39778   1.40925   1.41741   1.42686
 Alpha virt. eigenvalues --    1.44690   1.45223   1.46188   1.46998   1.48615
 Alpha virt. eigenvalues --    1.49401   1.50295   1.50806   1.52123   1.53732
 Alpha virt. eigenvalues --    1.54574   1.55995   1.58823   1.59220   1.62505
 Alpha virt. eigenvalues --    1.62587   1.65378   1.66081   1.66372   1.67604
 Alpha virt. eigenvalues --    1.71263   1.73071   1.74508   1.75180   1.76098
 Alpha virt. eigenvalues --    1.79684   1.80889   1.83911   1.85200   1.87314
 Alpha virt. eigenvalues --    1.88027   1.89894   1.90581   1.93022   1.93970
 Alpha virt. eigenvalues --    1.96340   1.99074   2.00801   2.02327   2.04725
 Alpha virt. eigenvalues --    2.06932   2.10508   2.12364   2.13768   2.13861
 Alpha virt. eigenvalues --    2.15617   2.17072   2.19940   2.20203   2.22125
 Alpha virt. eigenvalues --    2.23704   2.25693   2.28222   2.28799   2.31644
 Alpha virt. eigenvalues --    2.34106   2.35091   2.37983   2.40806   2.43424
 Alpha virt. eigenvalues --    2.44835   2.45870   2.50535   2.54099   2.56495
 Alpha virt. eigenvalues --    2.57241   2.59918   2.60919   2.63091   2.69175
 Alpha virt. eigenvalues --    2.72087   2.74635   2.76829   2.78736   2.81749
 Alpha virt. eigenvalues --    2.85039   2.90270   2.94105   2.96774   2.99500
 Alpha virt. eigenvalues --    3.06641   3.08629   3.11277   3.14005   3.16696
 Alpha virt. eigenvalues --    3.17938   3.23415   3.26155   3.28697   3.30896
 Alpha virt. eigenvalues --    3.32074   3.35621   3.42053   3.43318   3.45147
 Alpha virt. eigenvalues --    3.47489   3.50770   3.51299   3.52687   3.53415
 Alpha virt. eigenvalues --    3.56185   3.56673   3.59021   3.61690   3.62944
 Alpha virt. eigenvalues --    3.64536   3.71002   3.72108   3.73552   3.77110
 Alpha virt. eigenvalues --    3.77368   3.81256   3.82064   3.83174   3.86360
 Alpha virt. eigenvalues --    3.89978   3.90752   3.92357   3.93731   3.95267
 Alpha virt. eigenvalues --    3.98500   4.00607   4.03679   4.03818   4.07210
 Alpha virt. eigenvalues --    4.09488   4.13640   4.14566   4.17458   4.18141
 Alpha virt. eigenvalues --    4.19848   4.23744   4.25506   4.27037   4.29490
 Alpha virt. eigenvalues --    4.30803   4.31636   4.32726   4.35888   4.37352
 Alpha virt. eigenvalues --    4.39452   4.40624   4.44876   4.46329   4.47592
 Alpha virt. eigenvalues --    4.50499   4.53716   4.57869   4.58850   4.65831
 Alpha virt. eigenvalues --    4.67526   4.69404   4.71855   4.74612   4.74920
 Alpha virt. eigenvalues --    4.78572   4.84143   4.86856   4.87571   4.88492
 Alpha virt. eigenvalues --    4.91499   4.93019   4.95229   4.97516   4.99340
 Alpha virt. eigenvalues --    5.01432   5.04822   5.06815   5.07576   5.12020
 Alpha virt. eigenvalues --    5.14836   5.16499   5.17432   5.21193   5.29235
 Alpha virt. eigenvalues --    5.33058   5.34143   5.37107   5.39146   5.41810
 Alpha virt. eigenvalues --    5.42929   5.48528   5.49195   5.56295   5.57415
 Alpha virt. eigenvalues --    5.70639   5.72250   5.74863   5.75785   5.81081
 Alpha virt. eigenvalues --    5.85431   5.88291   5.90666   5.96077   6.12801
 Alpha virt. eigenvalues --    6.17938   6.23149   6.24037   6.30536   6.31970
 Alpha virt. eigenvalues --    6.33083   6.36669   6.37051   6.41955   6.43547
 Alpha virt. eigenvalues --    6.46935   6.51092   6.58668   6.70859   6.76291
 Alpha virt. eigenvalues --    6.79817   6.85587   6.86323   6.87421   6.92248
 Alpha virt. eigenvalues --    6.95120   7.00236   7.04870   7.09922   7.15922
 Alpha virt. eigenvalues --    7.30673   7.39668   7.48933   7.57674   7.61454
 Alpha virt. eigenvalues --    7.75214   8.46360  14.48600  15.71981  16.20813
 Alpha virt. eigenvalues --   17.06916  18.82813
  Beta  occ. eigenvalues --  -19.13729 -19.10611 -14.42340 -10.22174 -10.21500
  Beta  occ. eigenvalues --   -1.09612  -0.99006  -0.84294  -0.75266  -0.61228
  Beta  occ. eigenvalues --   -0.51984  -0.50411  -0.49390  -0.49038  -0.42738
  Beta  occ. eigenvalues --   -0.42402  -0.40896  -0.37210  -0.34080  -0.29620
  Beta  occ. eigenvalues --   -0.27593
  Beta virt. eigenvalues --   -0.07993  -0.01950   0.00041   0.00813   0.01257
  Beta virt. eigenvalues --    0.02594   0.03039   0.03578   0.04590   0.05671
  Beta virt. eigenvalues --    0.06308   0.07504   0.07871   0.08340   0.09126
  Beta virt. eigenvalues --    0.09544   0.09771   0.10585   0.11266   0.11617
  Beta virt. eigenvalues --    0.12009   0.13048   0.13243   0.13619   0.14005
  Beta virt. eigenvalues --    0.15739   0.16567   0.16969   0.18007   0.18173
  Beta virt. eigenvalues --    0.20593   0.21089   0.21581   0.22299   0.23217
  Beta virt. eigenvalues --    0.24053   0.25320   0.25897   0.26418   0.26879
  Beta virt. eigenvalues --    0.27481   0.28000   0.28523   0.28833   0.29139
  Beta virt. eigenvalues --    0.29462   0.30137   0.30893   0.31095   0.31972
  Beta virt. eigenvalues --    0.32191   0.33337   0.34016   0.34524   0.34910
  Beta virt. eigenvalues --    0.35968   0.36896   0.37488   0.38349   0.39021
  Beta virt. eigenvalues --    0.39536   0.40035   0.41281   0.41767   0.42760
  Beta virt. eigenvalues --    0.43503   0.43811   0.44836   0.45459   0.47788
  Beta virt. eigenvalues --    0.48271   0.49449   0.50950   0.51817   0.53109
  Beta virt. eigenvalues --    0.54297   0.55636   0.56493   0.59415   0.59949
  Beta virt. eigenvalues --    0.60816   0.63109   0.63523   0.65173   0.65423
  Beta virt. eigenvalues --    0.65923   0.66901   0.67318   0.68394   0.68793
  Beta virt. eigenvalues --    0.69176   0.71603   0.72135   0.72972   0.73328
  Beta virt. eigenvalues --    0.74213   0.75168   0.75357   0.76593   0.77681
  Beta virt. eigenvalues --    0.78043   0.79722   0.80764   0.81016   0.82262
  Beta virt. eigenvalues --    0.82989   0.83870   0.85465   0.86093   0.86179
  Beta virt. eigenvalues --    0.88308   0.88981   0.90492   0.91549   0.91945
  Beta virt. eigenvalues --    0.92739   0.94271   0.94859   0.95653   0.96237
  Beta virt. eigenvalues --    0.96758   0.98066   0.99244   0.99542   1.00496
  Beta virt. eigenvalues --    1.01540   1.03034   1.05345   1.05736   1.07124
  Beta virt. eigenvalues --    1.07733   1.09051   1.09803   1.10453   1.11729
  Beta virt. eigenvalues --    1.13391   1.13963   1.14638   1.15446   1.17110
  Beta virt. eigenvalues --    1.18123   1.19078   1.20044   1.21295   1.22955
  Beta virt. eigenvalues --    1.23677   1.25239   1.26509   1.28913   1.29476
  Beta virt. eigenvalues --    1.31657   1.32636   1.33311   1.34174   1.36954
  Beta virt. eigenvalues --    1.38102   1.39279   1.40036   1.41088   1.41911
  Beta virt. eigenvalues --    1.42818   1.44882   1.45437   1.46392   1.47166
  Beta virt. eigenvalues --    1.48893   1.49579   1.50462   1.51073   1.52569
  Beta virt. eigenvalues --    1.53990   1.54807   1.56351   1.59153   1.59862
  Beta virt. eigenvalues --    1.62631   1.62857   1.65508   1.66214   1.66752
  Beta virt. eigenvalues --    1.67780   1.71567   1.73286   1.74823   1.75409
  Beta virt. eigenvalues --    1.76464   1.80171   1.81396   1.84118   1.85516
  Beta virt. eigenvalues --    1.87528   1.88308   1.90287   1.90803   1.93410
  Beta virt. eigenvalues --    1.94249   1.96709   1.99245   2.01086   2.02988
  Beta virt. eigenvalues --    2.05045   2.07477   2.10931   2.12812   2.14101
  Beta virt. eigenvalues --    2.14440   2.15925   2.17430   2.20173   2.20984
  Beta virt. eigenvalues --    2.22582   2.24310   2.26203   2.29001   2.29518
  Beta virt. eigenvalues --    2.31888   2.34389   2.35806   2.38335   2.41602
  Beta virt. eigenvalues --    2.44132   2.45234   2.46616   2.51150   2.54514
  Beta virt. eigenvalues --    2.56867   2.57953   2.60801   2.61167   2.63185
  Beta virt. eigenvalues --    2.69664   2.72455   2.75148   2.77146   2.78821
  Beta virt. eigenvalues --    2.82369   2.85356   2.92162   2.94414   2.97076
  Beta virt. eigenvalues --    3.00517   3.06852   3.08926   3.11486   3.14374
  Beta virt. eigenvalues --    3.17070   3.18309   3.23584   3.26700   3.28909
  Beta virt. eigenvalues --    3.31007   3.32182   3.35658   3.42397   3.43529
  Beta virt. eigenvalues --    3.45496   3.47676   3.51334   3.51430   3.53004
  Beta virt. eigenvalues --    3.53583   3.56340   3.56781   3.59393   3.61882
  Beta virt. eigenvalues --    3.63705   3.64771   3.71478   3.72352   3.73952
  Beta virt. eigenvalues --    3.77251   3.77587   3.81328   3.82262   3.83495
  Beta virt. eigenvalues --    3.86583   3.90519   3.91049   3.92660   3.94165
  Beta virt. eigenvalues --    3.95572   3.98737   4.00895   4.03773   4.03921
  Beta virt. eigenvalues --    4.07710   4.09822   4.14021   4.14818   4.17657
  Beta virt. eigenvalues --    4.18958   4.20171   4.24201   4.25815   4.27228
  Beta virt. eigenvalues --    4.29820   4.31137   4.31912   4.32943   4.36513
  Beta virt. eigenvalues --    4.37532   4.39918   4.41536   4.45147   4.47498
  Beta virt. eigenvalues --    4.48067   4.51072   4.54139   4.58485   4.59595
  Beta virt. eigenvalues --    4.66267   4.68345   4.69901   4.72533   4.75085
  Beta virt. eigenvalues --    4.75463   4.79149   4.84999   4.87588   4.89026
  Beta virt. eigenvalues --    4.89275   4.91892   4.93831   4.95593   4.98308
  Beta virt. eigenvalues --    5.00021   5.02141   5.05072   5.07193   5.07874
  Beta virt. eigenvalues --    5.12317   5.15502   5.17577   5.18084   5.21576
  Beta virt. eigenvalues --    5.29959   5.33544   5.35418   5.37983   5.40485
  Beta virt. eigenvalues --    5.42312   5.43535   5.49338   5.50433   5.57659
  Beta virt. eigenvalues --    5.58393   5.71137   5.72930   5.75925   5.76253
  Beta virt. eigenvalues --    5.81803   5.85645   5.89106   5.91599   5.96589
  Beta virt. eigenvalues --    6.13854   6.18203   6.23900   6.24812   6.30990
  Beta virt. eigenvalues --    6.32507   6.33850   6.37263   6.37847   6.43744
  Beta virt. eigenvalues --    6.44160   6.48558   6.52629   6.59710   6.72197
  Beta virt. eigenvalues --    6.76710   6.82874   6.85884   6.89140   6.90125
  Beta virt. eigenvalues --    6.92892   6.95601   7.02215   7.05174   7.10398
  Beta virt. eigenvalues --    7.19899   7.30890   7.40745   7.49290   7.57781
  Beta virt. eigenvalues --    7.61768   7.76028   8.46393  14.50487  15.72886
  Beta virt. eigenvalues --   16.21423  17.06918  18.83167
          Condensed to atoms (all electrons):
               1          2          3          4          5          6
     1  O    8.989074  -0.181138  -0.024403   0.005277   0.014732  -0.000906
     2  N   -0.181138   6.417937   0.171046  -0.011397  -0.016836  -0.018596
     3  C   -0.024403   0.171046   5.420607   0.379693   0.387372   0.410833
     4  H    0.005277  -0.011397   0.379693   0.331044   0.006363   0.008706
     5  H    0.014732  -0.016836   0.387372   0.006363   0.316928   0.000606
     6  H   -0.000906  -0.018596   0.410833   0.008706   0.000606   0.357198
     7  C   -0.018476   0.177288  -0.049273   0.002293   0.002153  -0.011262
     8  H   -0.000375  -0.017684  -0.001983   0.000721   0.001398  -0.001270
     9  H    0.003986  -0.005252   0.001100  -0.003104  -0.001118   0.000794
    10  H   -0.000485  -0.011027  -0.007984   0.000682  -0.000770   0.001094
    11  O   -0.038375  -0.001444  -0.002265  -0.000266   0.000367   0.000112
    12  H   -0.004520   0.007995   0.006809   0.000123  -0.000438   0.000933
    13  H   -0.000316   0.002930   0.000987   0.000122  -0.000129   0.000008
               7          8          9         10         11         12
     1  O   -0.018476  -0.000375   0.003986  -0.000485  -0.038375  -0.004520
     2  N    0.177288  -0.017684  -0.005252  -0.011027  -0.001444   0.007995
     3  C   -0.049273  -0.001983   0.001100  -0.007984  -0.002265   0.006809
     4  H    0.002293   0.000721  -0.003104   0.000682  -0.000266   0.000123
     5  H    0.002153   0.001398  -0.001118  -0.000770   0.000367  -0.000438
     6  H   -0.011262  -0.001270   0.000794   0.001094   0.000112   0.000933
     7  C    5.474747   0.333642   0.401103   0.411164  -0.013485  -0.018175
     8  H    0.333642   0.326520  -0.007326   0.001129  -0.006572   0.002964
     9  H    0.401103  -0.007326   0.355547   0.006385  -0.000553  -0.001413
    10  H    0.411164   0.001129   0.006385   0.368474   0.000084  -0.001821
    11  O   -0.013485  -0.006572  -0.000553   0.000084   8.073878   0.177220
    12  H   -0.018175   0.002964  -0.001413  -0.001821   0.177220   0.517070
    13  H   -0.003075   0.001066  -0.000425  -0.000855   0.256562   0.030513
              13
     1  O   -0.000316
     2  N    0.002930
     3  C    0.000987
     4  H    0.000122
     5  H   -0.000129
     6  H    0.000008
     7  C   -0.003075
     8  H    0.001066
     9  H   -0.000425
    10  H   -0.000855
    11  O    0.256562
    12  H    0.030513
    13  H    0.583863
          Atomic-Atomic Spin Densities.
               1          2          3          4          5          6
     1  O    0.659491  -0.190199   0.010965   0.000523   0.000394  -0.000538
     2  N   -0.190199   0.751007  -0.029466  -0.006774  -0.002171  -0.002737
     3  C    0.010965  -0.029466  -0.039452   0.004319   0.005251   0.009724
     4  H    0.000523  -0.006774   0.004319   0.004227  -0.000655   0.001648
     5  H    0.000394  -0.002171   0.005251  -0.000655   0.003599   0.001461
     6  H   -0.000538  -0.002737   0.009724   0.001648   0.001461   0.017951
     7  C    0.013175  -0.029932   0.006921   0.001268  -0.000269   0.001075
     8  H    0.001436  -0.006180   0.001280  -0.000097   0.000008   0.000183
     9  H   -0.000545   0.000510   0.000036   0.000377   0.000024  -0.000076
    10  H   -0.000905  -0.002731   0.001326   0.000304  -0.000046  -0.000081
    11  O   -0.000192   0.000681  -0.000040  -0.000008  -0.000005  -0.000005
    12  H   -0.000649  -0.001185   0.000060   0.000021   0.000002   0.000003
    13  H   -0.000013  -0.000497   0.000046  -0.000003  -0.000010   0.000014
               7          8          9         10         11         12
     1  O    0.013175   0.001436  -0.000545  -0.000905  -0.000192  -0.000649
     2  N   -0.029932  -0.006180   0.000510  -0.002731   0.000681  -0.001185
     3  C    0.006921   0.001280   0.000036   0.001326  -0.000040   0.000060
     4  H    0.001268  -0.000097   0.000377   0.000304  -0.000008   0.000021
     5  H   -0.000269   0.000008   0.000024  -0.000046  -0.000005   0.000002
     6  H    0.001075   0.000183  -0.000076  -0.000081  -0.000005   0.000003
     7  C   -0.035350   0.003954   0.002552   0.010485   0.000071   0.000286
     8  H    0.003954   0.007423  -0.001248   0.000646  -0.000109  -0.000117
     9  H    0.002552  -0.001248   0.004105   0.000692   0.000067   0.000002
    10  H    0.010485   0.000646   0.000692   0.018291  -0.000049   0.000033
    11  O    0.000071  -0.000109   0.000067  -0.000049  -0.000739   0.000495
    12  H    0.000286  -0.000117   0.000002   0.000033   0.000495   0.000150
    13  H    0.000144  -0.000035  -0.000044   0.000148  -0.000007  -0.000764
              13
     1  O   -0.000013
     2  N   -0.000497
     3  C    0.000046
     4  H   -0.000003
     5  H   -0.000010
     6  H    0.000014
     7  C    0.000144
     8  H   -0.000035
     9  H   -0.000044
    10  H    0.000148
    11  O   -0.000007
    12  H   -0.000764
    13  H    0.000839
 Mulliken charges and spin densities:
               1          2
     1  O   -0.744073   0.492943
     2  N    0.486179   0.480327
     3  C   -0.692538  -0.029029
     4  H    0.279744   0.005151
     5  H    0.289372   0.007583
     6  H    0.251751   0.028622
     7  C   -0.688644  -0.025620
     8  H    0.367771   0.007144
     9  H    0.250277   0.006453
    10  H    0.233931   0.028113
    11  O   -0.445261   0.000160
    12  H    0.282742  -0.001663
    13  H    0.128749  -0.000183
 Sum of Mulliken charges =   0.00000   1.00000
 Mulliken charges and spin densities with hydrogens summed into heavy atoms:
               1          2
     1  O   -0.744073   0.492943
     2  N    0.486179   0.480327
     3  C    0.128330   0.012327
     7  C    0.163336   0.016090
    11  O   -0.033771  -0.001687
 Electronic spatial extent (au):  <R**2>=            634.2280
 Charge=              0.0000 electrons
 Dipole moment (field-independent basis, Debye):
    X=             -3.3380    Y=              1.7835    Z=              1.1503  Tot=              3.9555
 Quadrupole moment (field-independent basis, Debye-Ang):
   XX=            -31.0298   YY=            -32.7538   ZZ=            -31.7367
   XY=             -0.6115   XZ=              5.3569   YZ=              0.2478
 Traceless Quadrupole moment (field-independent basis, Debye-Ang):
   XX=              0.8103   YY=             -0.9137   ZZ=              0.1034
   XY=             -0.6115   XZ=              5.3569   YZ=              0.2478
 Octapole moment (field-independent basis, Debye-Ang**2):
  XXX=             -5.1657  YYY=              0.7817  ZZZ=              1.6665  XYY=              0.1692
  XXY=             -4.9429  XXZ=             15.7363  XZZ=              2.2519  YZZ=             -0.2659
  YYZ=             -1.3889  XYZ=             -0.8319
 Hexadecapole moment (field-independent basis, Debye-Ang**3):
 XXXX=           -561.5625 YYYY=           -172.1189 ZZZZ=            -50.7724 XXXY=             -1.2650
 XXXZ=             57.6093 YYYX=             -0.2410 YYYZ=             -0.5180 ZZZX=              2.2435
 ZZZY=             -0.1860 XXYY=           -124.7644 XXZZ=            -99.2763 YYZZ=            -36.3148
 XXYZ=             -4.3126 YYXZ=              3.4430 ZZXY=             -1.4892
 N-N= 1.899913247911D+02 E-N=-1.050782076898D+03  KE= 2.845971107253D+02
                          Isotropic Fermi Contact Couplings
        Atom                 a.u.       MegaHertz       Gauss      10(-4) cm-1
     1  O(17)              0.02986     -18.10229      -6.45935      -6.03827
     2  N(14)              0.08538      27.58825       9.84417       9.20245
     3  C(13)             -0.00923     -10.37887      -3.70344      -3.46202
     4  H(1)               0.00254      11.35664       4.05233       3.78817
     5  H(1)               0.00329      14.71672       5.25129       4.90897
     6  H(1)               0.01503      67.18002      23.97150      22.40884
     7  C(13)             -0.00721      -8.10120      -2.89071      -2.70227
     8  H(1)               0.00291      13.02710       4.64839       4.34537
     9  H(1)               0.00280      12.49436       4.45830       4.16767
    10  H(1)               0.01549      69.24225      24.70736      23.09673
    11  O(17)              0.00058      -0.35232      -0.12572      -0.11752
    12  H(1)               0.00002       0.07605       0.02714       0.02537
    13  H(1)               0.00008       0.37798       0.13487       0.12608
 --------------------------------------------------------
       Center         ----  Spin Dipole Couplings  ----
                      3XX-RR        3YY-RR        3ZZ-RR
 --------------------------------------------------------
     1   Atom       -0.985826     -1.066175      2.052000
     2   Atom       -0.644714     -0.681472      1.326186
     3   Atom        0.028468     -0.012710     -0.015758
     4   Atom        0.014064     -0.007575     -0.006489
     5   Atom        0.011248     -0.002910     -0.008338
     6   Atom        0.011615     -0.007272     -0.004343
     7   Atom       -0.012403      0.024620     -0.012217
     8   Atom        0.001457      0.007610     -0.009067
     9   Atom       -0.008797      0.016506     -0.007709
    10   Atom       -0.007124      0.009473     -0.002349
    11   Atom        0.007992     -0.003819     -0.004173
    12   Atom        0.021866     -0.010450     -0.011417
    13   Atom        0.005193     -0.002542     -0.002651
 --------------------------------------------------------
                        XY            XZ            YZ
 --------------------------------------------------------
     1   Atom       -0.022635     -0.538457      0.299769
     2   Atom       -0.019838     -0.295400      0.095304
     3   Atom        0.005015     -0.003594     -0.003187
     4   Atom       -0.006055      0.006329     -0.001027
     5   Atom        0.011014      0.004669      0.001503
     6   Atom       -0.000070     -0.006839      0.000233
     7   Atom        0.008925      0.004791      0.009820
     8   Atom        0.013054      0.000695     -0.000554
     9   Atom       -0.001749     -0.000340     -0.004629
    10   Atom        0.001485      0.000345      0.008464
    11   Atom        0.001702      0.002162      0.001177
    12   Atom        0.005885     -0.000933     -0.000158
    13   Atom        0.001281      0.001147      0.000141
 --------------------------------------------------------


 ---------------------------------------------------------------------------------
              Anisotropic Spin Dipole Couplings in Principal Axis System
 ---------------------------------------------------------------------------------

       Atom             a.u.   MegaHertz   Gauss  10(-4) cm-1        Axes

              Baa    -1.1155    80.720    28.803    26.925 -0.5865  0.7909 -0.1746
     1 O(17)  Bbb    -1.0567    76.464    27.284    25.506  0.7923  0.6050  0.0789
              Bcc     2.1723  -157.184   -56.087   -52.431 -0.1680  0.0920  0.9815
 
              Baa    -0.6929   -26.725    -9.536    -8.914  0.7604  0.6443  0.0808
     2 N(14)  Bbb    -0.6812   -26.271    -9.374    -8.763 -0.6330  0.7633 -0.1294
              Bcc     1.3741    52.996    18.910    17.678 -0.1451  0.0472  0.9883
 
              Baa    -0.0178    -2.385    -0.851    -0.795  0.0090  0.5266  0.8501
     3 C(13)  Bbb    -0.0116    -1.563    -0.558    -0.521 -0.1517  0.8410 -0.5194
              Bcc     0.0294     3.947     1.409     1.317  0.9884  0.1243 -0.0874
 
              Baa    -0.0094    -5.032    -1.795    -1.678  0.3302  0.8481 -0.4144
     4 H(1)   Bbb    -0.0079    -4.227    -1.508    -1.410 -0.1208  0.4734  0.8725
              Bcc     0.0174     9.259     3.304     3.088  0.9361 -0.2381  0.2588
 
              Baa    -0.0100    -5.328    -1.901    -1.777 -0.4271  0.5057  0.7496
     5 H(1)   Bbb    -0.0082    -4.351    -1.552    -1.451 -0.2588  0.7260 -0.6372
              Bcc     0.0181     9.678     3.453     3.228  0.8664  0.4661  0.1792
 
              Baa    -0.0074    -3.923    -1.400    -1.308 -0.1245  0.9266 -0.3548
     6 H(1)   Bbb    -0.0068    -3.625    -1.294    -1.209  0.3240  0.3759  0.8682
              Bcc     0.0141     7.548     2.693     2.518  0.9378 -0.0069 -0.3470
 
              Baa    -0.0171    -2.296    -0.819    -0.766 -0.6926 -0.0215  0.7210
     7 C(13)  Bbb    -0.0123    -1.647    -0.588    -0.550  0.6838 -0.3376  0.6469
              Bcc     0.0294     3.944     1.407     1.316  0.2295  0.9411  0.2485
 
              Baa    -0.0099    -5.264    -1.878    -1.756 -0.5241  0.4150  0.7437
     8 H(1)   Bbb    -0.0081    -4.311    -1.538    -1.438  0.5831 -0.4616  0.6685
              Bcc     0.0179     9.575     3.417     3.194  0.6207  0.7840 -0.0001
 
              Baa    -0.0094    -5.018    -1.791    -1.674  0.7894  0.1592  0.5929
     9 H(1)   Bbb    -0.0081    -4.301    -1.535    -1.435 -0.6106  0.1045  0.7850
              Bcc     0.0175     9.319     3.325     3.108 -0.0630  0.9817 -0.1797
 
              Baa    -0.0074    -3.970    -1.416    -1.324  0.8704 -0.2793  0.4055
    10 H(1)   Bbb    -0.0065    -3.494    -1.247    -1.166 -0.4874 -0.3721  0.7899
              Bcc     0.0140     7.464     2.663     2.490  0.0698  0.8852  0.4600
 
              Baa    -0.0052     0.377     0.135     0.126 -0.0518 -0.6063  0.7935
    11 O(17)  Bbb    -0.0034     0.249     0.089     0.083 -0.2265  0.7810  0.5820
              Bcc     0.0086    -0.626    -0.223    -0.209  0.9726  0.1496  0.1778
 
              Baa    -0.0115    -6.130    -2.187    -2.045 -0.1758  0.9740 -0.1427
    12 H(1)   Bbb    -0.0114    -6.105    -2.178    -2.036  0.0020  0.1453  0.9894
              Bcc     0.0229    12.235     4.366     4.081  0.9844  0.1737 -0.0275
 
              Baa    -0.0028    -1.513    -0.540    -0.505 -0.1939  0.4221  0.8856
    13 H(1)   Bbb    -0.0027    -1.455    -0.519    -0.485 -0.0802  0.8929 -0.4431
              Bcc     0.0056     2.968     1.059     0.990  0.9777  0.1570  0.1393
 

 ---------------------------------------------------------------------------------

 Calling FoFJK, ICntrl=      2127 FMM=F ISym2X=0 I1Cent= 0 IOpClX= 1 NMat=1 NMatS=1 NMatT=0.
 ***** Axes restored to original set *****
 -------------------------------------------------------------------
 Center     Atomic                   Forces (Hartrees/Bohr)
 Number     Number              X              Y              Z
 -------------------------------------------------------------------
      1        8           0.002101239   -0.002112824    0.000170165
      2        7          -0.000410815   -0.000299371    0.000270697
      3        6          -0.000871785   -0.000233043   -0.000866519
      4        1          -0.001244701    0.000683457   -0.000894779
      5        1          -0.000860720   -0.001392519   -0.000538567
      6        1          -0.000817565    0.000038171    0.001643317
      7        6           0.000040589    0.000726849   -0.000598744
      8        1           0.000876720    0.001326959   -0.000269514
      9        1          -0.000307309    0.001398828   -0.000895366
     10        1          -0.000081520    0.000698862    0.001648650
     11        8           0.002353431    0.001801115   -0.002610041
     12        1          -0.003975402   -0.002404079    0.000350675
     13        1           0.003197839   -0.000232406    0.002590026
 -------------------------------------------------------------------
 Cartesian Forces:  Max     0.003975402 RMS     0.001465927

 GradGradGradGradGradGradGradGradGradGradGradGradGradGradGradGradGradGrad
 Berny optimization.
 FormGI is forming the generalized inverse of G from B-inverse, IUseBI=4.
 Internal  Forces:  Max     0.006383869 RMS     0.001993725
 Search for a local minimum.
 Step number   1 out of a maximum of   56
 All quantities printed in internal units (Hartrees-Bohrs-Radians)
 Mixed Optimization -- RFO/linear search
 Second derivative matrix not updated -- first step.
 ITU=  0
     Eigenvalues ---    0.00230   0.00981   0.01030   0.01431   0.01618
     Eigenvalues ---    0.02899   0.05276   0.07611   0.07663   0.07763
     Eigenvalues ---    0.07813   0.16000   0.16000   0.16000   0.16000
     Eigenvalues ---    0.16000   0.16000   0.16000   0.16000   0.22948
     Eigenvalues ---    0.24118   0.25000   0.34490   0.34538   0.35196
     Eigenvalues ---    0.35197   0.35500   0.35545   0.37761   0.38237
     Eigenvalues ---    0.53460   0.56055   0.73466
 RFO step:  Lambda=-9.75273201D-04 EMin= 2.30000000D-03
 Linear search not attempted -- first point.
 Iteration  1 RMS(Cart)=  0.08644864 RMS(Int)=  0.01305207
 Iteration  2 RMS(Cart)=  0.01978197 RMS(Int)=  0.00083504
 Iteration  3 RMS(Cart)=  0.00081453 RMS(Int)=  0.00001456
 Iteration  4 RMS(Cart)=  0.00000168 RMS(Int)=  0.00001452
 Iteration  5 RMS(Cart)=  0.00000000 RMS(Int)=  0.00001452
 Variable       Old X    -DE/DX   Delta X   Delta X   Delta X     New X
                                 (Linear)    (Quad)   (Total)
    R1        2.41644   0.00459   0.00000   0.00624   0.00624   2.42268
    R2        3.55511   0.00125   0.00000   0.02335   0.02335   3.57847
    R3        2.74022   0.00390   0.00000   0.01017   0.01017   2.75038
    R4        2.74714   0.00405   0.00000   0.01069   0.01069   2.75783
    R5        2.05358   0.00156   0.00000   0.00441   0.00441   2.05799
    R6        2.04799   0.00160   0.00000   0.00448   0.00448   2.05247
    R7        2.06432   0.00183   0.00000   0.00528   0.00528   2.06960
    R8        2.04871   0.00095   0.00000   0.00266   0.00266   2.05137
    R9        2.05356   0.00156   0.00000   0.00442   0.00442   2.05798
   R10        2.06511   0.00177   0.00000   0.00510   0.00510   2.07021
   R11        1.83226   0.00552   0.00000   0.01031   0.01031   1.84257
   R12        1.80906   0.00387   0.00000   0.00689   0.00689   1.81595
    A1        1.93837   0.00638   0.00000   0.03966   0.03966   1.97803
    A2        2.04764  -0.00131   0.00000  -0.00421  -0.00424   2.04339
    A3        2.07624   0.00237   0.00000   0.01176   0.01176   2.08800
    A4        2.07523  -0.00101   0.00000  -0.00279  -0.00282   2.07241
    A5        1.91334   0.00075   0.00000   0.00480   0.00480   1.91814
    A6        1.88373   0.00076   0.00000   0.00468   0.00468   1.88841
    A7        1.92620  -0.00004   0.00000  -0.00036  -0.00036   1.92584
    A8        1.92753  -0.00069   0.00000  -0.00402  -0.00404   1.92350
    A9        1.90450  -0.00036   0.00000  -0.00216  -0.00216   1.90234
   A10        1.90856  -0.00042   0.00000  -0.00293  -0.00293   1.90563
   A11        1.88970   0.00165   0.00000   0.01052   0.01051   1.90021
   A12        1.90737   0.00051   0.00000   0.00279   0.00278   1.91016
   A13        1.91915   0.00004   0.00000   0.00041   0.00040   1.91955
   A14        1.93266  -0.00113   0.00000  -0.00734  -0.00736   1.92530
   A15        1.91295  -0.00069   0.00000  -0.00351  -0.00353   1.90943
   A16        1.90203  -0.00037   0.00000  -0.00279  -0.00279   1.89924
   A17        1.82405   0.00231   0.00000   0.01436   0.01436   1.83841
   A18        2.87368   0.00200   0.00000   0.00798   0.00798   2.88165
    D1        3.01829  -0.00030   0.00000  -0.01769  -0.01771   3.00058
    D2       -0.55653  -0.00043   0.00000  -0.00688  -0.00686  -0.56339
    D3        0.21768   0.00085   0.00000   0.26013   0.26013   0.47781
    D4       -2.74645   0.00036   0.00000   0.00789   0.00786  -2.73859
    D5       -0.64620   0.00042   0.00000   0.00864   0.00862  -0.63757
    D6        1.43854   0.00035   0.00000   0.00773   0.00771   1.44624
    D7        0.82810  -0.00037   0.00000  -0.00664  -0.00662   0.82148
    D8        2.92836  -0.00031   0.00000  -0.00588  -0.00585   2.92250
    D9       -1.27010  -0.00038   0.00000  -0.00679  -0.00677  -1.27687
   D10        0.60823   0.00027   0.00000   0.00435   0.00433   0.61255
   D11        2.71479   0.00020   0.00000   0.00344   0.00343   2.71821
   D12       -1.48135   0.00009   0.00000   0.00199   0.00197  -1.47938
   D13       -2.97347   0.00008   0.00000   0.01506   0.01508  -2.95839
   D14       -0.86691   0.00001   0.00000   0.01415   0.01418  -0.85273
   D15        1.22014  -0.00010   0.00000   0.01270   0.01272   1.23286
   D16        1.99759   0.00110   0.00000   0.07214   0.07214   2.06974
         Item               Value     Threshold  Converged?
 Maximum Force            0.006384     0.000450     NO 
 RMS     Force            0.001994     0.000300     NO 
 Maximum Displacement     0.475231     0.001800     NO 
 RMS     Displacement     0.102766     0.001200     NO 
 Predicted change in Energy=-5.253943D-04
 GradGradGradGradGradGradGradGradGradGradGradGradGradGradGradGradGradGrad

                          Input orientation:                          
 ---------------------------------------------------------------------
 Center     Atomic      Atomic             Coordinates (Angstroms)
 Number     Number       Type             X           Y           Z
 ---------------------------------------------------------------------
      1          8           0        0.085102   -0.969867    0.217645
      2          7           0       -0.715907   -0.019740   -0.097365
      3          6           0       -2.138342   -0.327820   -0.105915
      4          1           0       -2.665569    0.373036   -0.751548
      5          1           0       -2.263427   -1.342549   -0.472440
      6          1           0       -2.549151   -0.257790    0.906883
      7          6           0       -0.299266    1.366585    0.087861
      8          1           0        0.764081    1.443958   -0.116347
      9          1           0       -0.861862    2.007752   -0.589187
     10          1           0       -0.495838    1.682063    1.118381
     11          8           0        2.762834   -0.067518   -0.129979
     12          1           0        1.908895   -0.529098   -0.038058
     13          1           0        3.319714   -0.421909    0.568400
 ---------------------------------------------------------------------
                    Distance matrix (angstroms):
                    1          2          3          4          5
     1  O    0.000000
     2  N    1.282025   0.000000
     3  C    2.336797   1.455441   0.000000
     4  H    3.210750   2.093660   1.089040   0.000000
     5  H    2.476024   2.070102   1.086122   1.784055   0.000000
     6  H    2.814497   2.103798   1.095185   1.778170   1.777885
     7  C    2.371411   1.459382   2.508138   2.700210   3.392827
     8  H    2.529648   2.081619   3.400495   3.648678   4.130040
     9  H    3.227063   2.091392   2.705153   2.439676   3.633529
    10  H    2.860341   2.102999   2.869904   3.149273   3.847514
    11  O    2.846985   3.479221   4.908142   5.481604   5.196756
    12  H    1.893643   2.674425   4.052808   4.716846   4.273016
    13  H    3.299394   4.109893   5.500358   6.180438   5.753468
                    6          7          8          9         10
     6  H    0.000000
     7  C    2.893333   0.000000
     8  H    3.862701   1.085539   0.000000
     9  H    3.196538   1.089038   1.784694   0.000000
    10  H    2.832641   1.095508   1.780068   1.776467   0.000000
    11  O    5.415577   3.388298   2.505945   4.201909   3.903636
    12  H    4.565162   2.912979   2.282472   3.796900   3.465447
    13  H    5.880909   4.065298   3.237530   4.972810   4.391767
                   11         12         13
    11  O    0.000000
    12  H    0.975046   0.000000
    13  H    0.960959   1.539380   0.000000
 Stoichiometry    C2H8NO2(2)
 Framework group  C1[X(C2H8NO2)]
 Deg. of freedom    33
 Full point group                 C1      NOp   1
 Largest Abelian subgroup         C1      NOp   1
 Largest concise Abelian subgroup C1      NOp   1
                         Standard orientation:                         
 ---------------------------------------------------------------------
 Center     Atomic      Atomic             Coordinates (Angstroms)
 Number     Number       Type             X           Y           Z
 ---------------------------------------------------------------------
      1          8           0        0.095448   -0.987776    0.195398
      2          7           0       -0.723511   -0.047345   -0.102066
      3          6           0       -2.141080   -0.377172   -0.097395
      4          1           0       -2.686257    0.321142   -0.730758
      5          1           0       -2.254809   -1.390444   -0.471570
      6          1           0       -2.541368   -0.322370    0.920541
      7          6           0       -0.326016    1.343541    0.090884
      8          1           0        0.733635    1.439046   -0.124555
      9          1           0       -0.906002    1.981908   -0.574028
     10          1           0       -0.515653    1.646891    1.126333
     11          8           0        2.754958   -0.041342   -0.174187
     12          1           0        1.909270   -0.516786   -0.076818
     13          1           0        3.325092   -0.393252    0.514688
 ---------------------------------------------------------------------
 Rotational constants (GHZ):      9.1487498      2.2423677      1.8666843
 Standard basis: Aug-CC-pVTZ (5D, 7F)
 There are   475 symmetry adapted cartesian basis functions of A   symmetry.
 There are   414 symmetry adapted basis functions of A   symmetry.
   414 basis functions,   576 primitive gaussians,   475 cartesian basis functions
    22 alpha electrons       21 beta electrons
       nuclear repulsion energy       188.4303728848 Hartrees.
 NAtoms=   13 NActive=   13 NUniq=   13 SFac= 1.00D+00 NAtFMM=   60 NAOKFM=F Big=F
 Integral buffers will be    131072 words long.
 Raffenetti 2 integral format.
 Two-electron integral symmetry is turned on.
 Nuclear repulsion after empirical dispersion term =      188.4234056907 Hartrees.
 One-electron integrals computed using PRISM.
 NBasis=   414 RedAO= T EigKep=  1.81D-05  NBF=   414
 NBsUse=   414 1.00D-06 EigRej= -1.00D+00 NBFU=   414
 Initial guess from the checkpoint file:  "2406-25-9.chk"
 B after Tr=     0.000000    0.000000    0.000000
         Rot=    0.999953   -0.001172   -0.000152   -0.009663 Ang=  -1.12 deg.
 Initial guess <Sx>= 0.0000 <Sy>= 0.0000 <Sz>= 0.5000 <S**2>= 0.7547 S= 0.5024
 ExpMin= 2.53D-02 ExpMax= 1.53D+04 ExpMxC= 5.22D+02 IAcc=3 IRadAn=         5 AccDes= 0.00D+00
 Harris functional with IExCor=  402 and IRadAn=       5 diagonalized for initial guess.
 HarFok:  IExCor=  402 AccDes= 0.00D+00 IRadAn=         5 IDoV= 1 UseB2=F ITyADJ=14
 ICtDFT=  3500011 ScaDFX=  1.000000  1.000000  1.000000  1.000000
 FoFCou: FMM=F IPFlag=           0 FMFlag=      100000 FMFlg1=           0
         NFxFlg=           0 DoJE=T BraDBF=F KetDBF=T FulRan=T
         wScrn=  0.000000 ICntrl=     500 IOpCl=  0 I1Cent=   200000004 NGrid=           0
         NMat0=    1 NMatS0=      1 NMatT0=    0 NMatD0=    1 NMtDS0=    0 NMtDT0=    0
 Petite list used in FoFCou.
 Requested convergence on RMS density matrix=1.00D-08 within 128 cycles.
 Requested convergence on MAX density matrix=1.00D-06.
 Requested convergence on             energy=1.00D-06.
 No special actions if energy rises.
 SCF Done:  E(UB3LYP) =  -286.289323152     A.U. after   12 cycles
            NFock= 12  Conv=0.65D-08     -V/T= 2.0062
 <Sx>= 0.0000 <Sy>= 0.0000 <Sz>= 0.5000 <S**2>= 0.7548 S= 0.5024
 <L.S>= 0.000000000000E+00
 Annihilation of the first spin contaminant:
 S**2 before annihilation     0.7548,   after     0.7500
 Calling FoFJK, ICntrl=      2127 FMM=F ISym2X=0 I1Cent= 0 IOpClX= 1 NMat=1 NMatS=1 NMatT=0.
 ***** Axes restored to original set *****
 -------------------------------------------------------------------
 Center     Atomic                   Forces (Hartrees/Bohr)
 Number     Number              X              Y              Z
 -------------------------------------------------------------------
      1        8           0.000234954    0.002481185   -0.001062935
      2        7          -0.001036765   -0.001748355    0.000112510
      3        6          -0.000596128    0.000200826    0.000001603
      4        1           0.000041787    0.000032399   -0.000057255
      5        1           0.000215072    0.000066135   -0.000011539
      6        1           0.000051568    0.000012734    0.000007764
      7        6           0.000244957   -0.000574454    0.000393479
      8        1           0.000503183   -0.000482346    0.000217406
      9        1           0.000019669   -0.000272654   -0.000185729
     10        1           0.000391039   -0.000084183   -0.000072020
     11        8          -0.000786558   -0.000501877   -0.000594413
     12        1           0.000985009    0.000880234    0.001633765
     13        1          -0.000267787   -0.000009644   -0.000382636
 -------------------------------------------------------------------
 Cartesian Forces:  Max     0.002481185 RMS     0.000700727

 GradGradGradGradGradGradGradGradGradGradGradGradGradGradGradGradGradGrad
 Berny optimization.
 Using GEDIIS/GDIIS optimizer.
 FormGI is forming the generalized inverse of G from B-inverse, IUseBI=4.
 Internal  Forces:  Max     0.003401117 RMS     0.000793442
 Search for a local minimum.
 Step number   2 out of a maximum of   56
 All quantities printed in internal units (Hartrees-Bohrs-Radians)
 Mixed Optimization -- En-DIIS/RFO-DIIS
 Update second derivatives using D2CorX and points    1    2
 DE= -3.59D-04 DEPred=-5.25D-04 R= 6.83D-01
 TightC=F SS=  1.41D+00  RLast= 2.78D-01 DXNew= 5.0454D-01 8.3530D-01
 Trust test= 6.83D-01 RLast= 2.78D-01 DXMaxT set to 5.05D-01
 ITU=  1  0
 Use linear search instead of GDIIS.
     Eigenvalues ---    0.00271   0.00987   0.01030   0.01357   0.01597
     Eigenvalues ---    0.02935   0.05246   0.07585   0.07654   0.07695
     Eigenvalues ---    0.07774   0.15362   0.16000   0.16000   0.16000
     Eigenvalues ---    0.16000   0.16000   0.16000   0.16202   0.23979
     Eigenvalues ---    0.24729   0.26818   0.34450   0.34514   0.35079
     Eigenvalues ---    0.35199   0.35423   0.35576   0.37866   0.38373
     Eigenvalues ---    0.53962   0.56052   0.75264
 RFO step:  Lambda=-7.16359488D-05 EMin= 2.70660064D-03
 Quartic linear search produced a step of -0.19069.
 Iteration  1 RMS(Cart)=  0.01960210 RMS(Int)=  0.00032073
 Iteration  2 RMS(Cart)=  0.00025268 RMS(Int)=  0.00000751
 Iteration  3 RMS(Cart)=  0.00000011 RMS(Int)=  0.00000751
 Variable       Old X    -DE/DX   Delta X   Delta X   Delta X     New X
                                 (Linear)    (Quad)   (Total)
    R1        2.42268  -0.00211  -0.00119  -0.00063  -0.00182   2.42086
    R2        3.57847  -0.00007  -0.00445   0.00522   0.00076   3.57923
    R3        2.75038   0.00022  -0.00194   0.00322   0.00128   2.75167
    R4        2.75783  -0.00097  -0.00204   0.00084  -0.00120   2.75663
    R5        2.05799   0.00004  -0.00084   0.00128   0.00044   2.05843
    R6        2.05247  -0.00008  -0.00085   0.00103   0.00018   2.05265
    R7        2.06960  -0.00001  -0.00101   0.00141   0.00040   2.07000
    R8        2.05137   0.00042  -0.00051   0.00168   0.00117   2.05254
    R9        2.05798  -0.00006  -0.00084   0.00107   0.00023   2.05821
   R10        2.07021  -0.00016  -0.00097   0.00101   0.00004   2.07025
   R11        1.84257  -0.00107  -0.00197   0.00118  -0.00079   1.84179
   R12        1.81595  -0.00043  -0.00131   0.00125  -0.00006   1.81589
    A1        1.97803  -0.00101  -0.00756   0.00563  -0.00193   1.97610
    A2        2.04339   0.00201   0.00081   0.00609   0.00691   2.05031
    A3        2.08800  -0.00340  -0.00224  -0.00860  -0.01085   2.07716
    A4        2.07241   0.00143   0.00054   0.00413   0.00468   2.07709
    A5        1.91814  -0.00003  -0.00091   0.00116   0.00025   1.91839
    A6        1.88841  -0.00030  -0.00089  -0.00038  -0.00127   1.88713
    A7        1.92584   0.00000   0.00007   0.00000   0.00007   1.92591
    A8        1.92350   0.00012   0.00077  -0.00071   0.00006   1.92356
    A9        1.90234   0.00008   0.00041   0.00006   0.00047   1.90281
   A10        1.90563   0.00014   0.00056  -0.00015   0.00041   1.90604
   A11        1.90021  -0.00074  -0.00200  -0.00164  -0.00364   1.89657
   A12        1.91016  -0.00019  -0.00053   0.00046  -0.00007   1.91008
   A13        1.91955   0.00028  -0.00008   0.00160   0.00152   1.92107
   A14        1.92530   0.00043   0.00140   0.00004   0.00144   1.92674
   A15        1.90943  -0.00008   0.00067  -0.00273  -0.00205   1.90738
   A16        1.89924   0.00030   0.00053   0.00228   0.00281   1.90206
   A17        1.83841  -0.00017  -0.00274   0.00304   0.00031   1.83872
   A18        2.88165   0.00040  -0.00152   0.00346   0.00194   2.88359
    D1        3.00058   0.00007   0.00338   0.00296   0.00635   3.00693
    D2       -0.56339   0.00056   0.00131   0.00816   0.00946  -0.55393
    D3        0.47781  -0.00021  -0.04960  -0.02364  -0.07324   0.40456
    D4       -2.73859  -0.00032  -0.00150   0.00177   0.00029  -2.73830
    D5       -0.63757  -0.00038  -0.00164   0.00137  -0.00026  -0.63784
    D6        1.44624  -0.00039  -0.00147   0.00095  -0.00050   1.44574
    D7        0.82148   0.00041   0.00126  -0.00019   0.00106   0.82254
    D8        2.92250   0.00035   0.00112  -0.00060   0.00050   2.92301
    D9       -1.27687   0.00034   0.00129  -0.00101   0.00027  -1.27660
   D10        0.61255  -0.00048  -0.00083  -0.00713  -0.00794   0.60461
   D11        2.71821  -0.00052  -0.00065  -0.00781  -0.00846   2.70976
   D12       -1.47938  -0.00010  -0.00038  -0.00375  -0.00411  -1.48349
   D13       -2.95839   0.00012  -0.00288  -0.00144  -0.00433  -2.96272
   D14       -0.85273   0.00008  -0.00270  -0.00213  -0.00484  -0.85757
   D15        1.23286   0.00050  -0.00243   0.00194  -0.00050   1.23236
   D16        2.06974   0.00028  -0.01376   0.03437   0.02061   2.09035
         Item               Value     Threshold  Converged?
 Maximum Force            0.003401     0.000450     NO 
 RMS     Force            0.000793     0.000300     NO 
 Maximum Displacement     0.085342     0.001800     NO 
 RMS     Displacement     0.019661     0.001200     NO 
 Predicted change in Energy=-5.041269D-05
 GradGradGradGradGradGradGradGradGradGradGradGradGradGradGradGradGradGrad

                          Input orientation:                          
 ---------------------------------------------------------------------
 Center     Atomic      Atomic             Coordinates (Angstroms)
 Number     Number       Type             X           Y           Z
 ---------------------------------------------------------------------
      1          8           0        0.081421   -0.975629    0.214203
      2          7           0       -0.720111   -0.026273   -0.097878
      3          6           0       -2.145101   -0.325635   -0.106245
      4          1           0       -2.668542    0.379210   -0.751006
      5          1           0       -2.275304   -1.339183   -0.474530
      6          1           0       -2.555086   -0.254942    0.907071
      7          6           0       -0.288430    1.354478    0.089512
      8          1           0        0.777000    1.416043   -0.112496
      9          1           0       -0.841470    2.002449   -0.589126
     10          1           0       -0.480140    1.671670    1.120443
     11          8           0        2.754396   -0.061766   -0.142413
     12          1           0        1.904363   -0.526572   -0.036090
     13          1           0        3.308271   -0.376748    0.576885
 ---------------------------------------------------------------------
                    Distance matrix (angstroms):
                    1          2          3          4          5
     1  O    0.000000
     2  N    1.281064   0.000000
     3  C    2.341491   1.456120   0.000000
     4  H    3.213956   2.094606   1.089273   0.000000
     5  H    2.482071   2.069836   1.086216   1.784362   0.000000
     6  H    2.819685   2.104601   1.095397   1.778832   1.778392
     7  C    2.362570   1.458746   2.511640   2.706022   3.394351
     8  H    2.512102   2.078901   3.401787   3.654378   4.127819
     9  H    3.219629   2.090876   2.711568   2.449347   3.638064
    10  H    2.853912   2.103546   2.875081   3.156245   3.851206
    11  O    2.847299   3.474973   4.906731   5.474769   5.199997
    12  H    1.894047   2.672448   4.055053   4.716249   4.280441
    13  H    3.301932   4.099512   5.496230   6.169041   5.762644
                    6          7          8          9         10
     6  H    0.000000
     7  C    2.897648   0.000000
     8  H    3.864518   1.086157   0.000000
     9  H    3.204824   1.089160   1.786195   0.000000
    10  H    2.839500   1.095529   1.779293   1.778370   0.000000
    11  O    5.415656   3.364272   2.468787   4.170226   3.880957
    12  H    4.566182   2.891793   2.247340   3.773777   3.443210
    13  H    5.873910   4.021310   3.177527   4.923466   4.340914
                   11         12         13
    11  O    0.000000
    12  H    0.974631   0.000000
    13  H    0.960927   1.539202   0.000000
 Stoichiometry    C2H8NO2(2)
 Framework group  C1[X(C2H8NO2)]
 Deg. of freedom    33
 Full point group                 C1      NOp   1
 Largest Abelian subgroup         C1      NOp   1
 Largest concise Abelian subgroup C1      NOp   1
                         Standard orientation:                         
 ---------------------------------------------------------------------
 Center     Atomic      Atomic             Coordinates (Angstroms)
 Number     Number       Type             X           Y           Z
 ---------------------------------------------------------------------
      1          8           0        0.088346   -0.991638    0.196265
      2          7           0       -0.725629   -0.048212   -0.101258
      3          6           0       -2.147559   -0.361882   -0.098211
      4          1           0       -2.684213    0.342243   -0.732818
      5          1           0       -2.271122   -1.374027   -0.472589
      6          1           0       -2.548478   -0.302594    0.919454
      7          6           0       -0.306036    1.335450    0.092030
      8          1           0        0.756732    1.409216   -0.119675
      9          1           0       -0.872042    1.982648   -0.576581
     10          1           0       -0.491006    1.643294    1.127018
     11          8           0        2.748471   -0.048297   -0.179175
     12          1           0        1.904203   -0.522413   -0.068131
     13          1           0        3.312363   -0.362816    0.532503
 ---------------------------------------------------------------------
 Rotational constants (GHZ):      9.2094974      2.2459828      1.8724914
 Standard basis: Aug-CC-pVTZ (5D, 7F)
 There are   475 symmetry adapted cartesian basis functions of A   symmetry.
 There are   414 symmetry adapted basis functions of A   symmetry.
   414 basis functions,   576 primitive gaussians,   475 cartesian basis functions
    22 alpha electrons       21 beta electrons
       nuclear repulsion energy       188.5846134558 Hartrees.
 NAtoms=   13 NActive=   13 NUniq=   13 SFac= 1.00D+00 NAtFMM=   60 NAOKFM=F Big=F
 Integral buffers will be    131072 words long.
 Raffenetti 2 integral format.
 Two-electron integral symmetry is turned on.
 Nuclear repulsion after empirical dispersion term =      188.5776221312 Hartrees.
 One-electron integrals computed using PRISM.
 NBasis=   414 RedAO= T EigKep=  1.79D-05  NBF=   414
 NBsUse=   414 1.00D-06 EigRej= -1.00D+00 NBFU=   414
 Initial guess from the checkpoint file:  "2406-25-9.chk"
 B after Tr=     0.000000    0.000000    0.000000
         Rot=    0.999997    0.000043   -0.000099    0.002578 Ang=   0.30 deg.
 Initial guess <Sx>= 0.0000 <Sy>= 0.0000 <Sz>= 0.5000 <S**2>= 0.7548 S= 0.5024
 ExpMin= 2.53D-02 ExpMax= 1.53D+04 ExpMxC= 5.22D+02 IAcc=3 IRadAn=         5 AccDes= 0.00D+00
 Harris functional with IExCor=  402 and IRadAn=       5 diagonalized for initial guess.
 HarFok:  IExCor=  402 AccDes= 0.00D+00 IRadAn=         5 IDoV= 1 UseB2=F ITyADJ=14
 ICtDFT=  3500011 ScaDFX=  1.000000  1.000000  1.000000  1.000000
 FoFCou: FMM=F IPFlag=           0 FMFlag=      100000 FMFlg1=           0
         NFxFlg=           0 DoJE=T BraDBF=F KetDBF=T FulRan=T
         wScrn=  0.000000 ICntrl=     500 IOpCl=  0 I1Cent=   200000004 NGrid=           0
         NMat0=    1 NMatS0=      1 NMatT0=    0 NMatD0=    1 NMtDS0=    0 NMtDT0=    0
 Petite list used in FoFCou.
 Requested convergence on RMS density matrix=1.00D-08 within 128 cycles.
 Requested convergence on MAX density matrix=1.00D-06.
 Requested convergence on             energy=1.00D-06.
 No special actions if energy rises.
 SCF Done:  E(UB3LYP) =  -286.289385274     A.U. after   10 cycles
            NFock= 10  Conv=0.55D-08     -V/T= 2.0062
 <Sx>= 0.0000 <Sy>= 0.0000 <Sz>= 0.5000 <S**2>= 0.7547 S= 0.5024
 <L.S>= 0.000000000000E+00
 Annihilation of the first spin contaminant:
 S**2 before annihilation     0.7547,   after     0.7500
 Calling FoFJK, ICntrl=      2127 FMM=F ISym2X=0 I1Cent= 0 IOpClX= 1 NMat=1 NMatS=1 NMatT=0.
 ***** Axes restored to original set *****
 -------------------------------------------------------------------
 Center     Atomic                   Forces (Hartrees/Bohr)
 Number     Number              X              Y              Z
 -------------------------------------------------------------------
      1        8          -0.000300698    0.000396113   -0.000831592
      2        7          -0.000283571   -0.000318063    0.000225990
      3        6           0.000021782   -0.000069954    0.000218200
      4        1           0.000262750   -0.000029327    0.000049832
      5        1           0.000134071    0.000083672    0.000025319
      6        1           0.000097970    0.000002952   -0.000138171
      7        6          -0.000087345    0.000066343   -0.000121260
      8        1          -0.000075661   -0.000105363    0.000086860
      9        1           0.000060197   -0.000019896    0.000061665
     10        1           0.000078645   -0.000081927   -0.000150902
     11        8          -0.000382595   -0.000315437   -0.000457534
     12        1           0.000683578    0.000482210    0.001405928
     13        1          -0.000209124   -0.000091324   -0.000374335
 -------------------------------------------------------------------
 Cartesian Forces:  Max     0.001405928 RMS     0.000349712

 GradGradGradGradGradGradGradGradGradGradGradGradGradGradGradGradGradGrad
 Berny optimization.
 Using GEDIIS/GDIIS optimizer.
 FormGI is forming the generalized inverse of G from B-inverse, IUseBI=4.
 Internal  Forces:  Max     0.000621328 RMS     0.000209836
 Search for a local minimum.
 Step number   3 out of a maximum of   56
 All quantities printed in internal units (Hartrees-Bohrs-Radians)
 Mixed Optimization -- En-DIIS/RFO-DIIS
 Swapping is turned off.
 Update second derivatives using D2CorX and points    1    2    3
 DE= -6.21D-05 DEPred=-5.04D-05 R= 1.23D+00
 TightC=F SS=  1.41D+00  RLast= 7.97D-02 DXNew= 8.4853D-01 2.3908D-01
 Trust test= 1.23D+00 RLast= 7.97D-02 DXMaxT set to 5.05D-01
 ITU=  1  1  0
     Eigenvalues ---    0.00232   0.00962   0.01029   0.01123   0.01593
     Eigenvalues ---    0.02834   0.05240   0.07573   0.07585   0.07707
     Eigenvalues ---    0.07785   0.15020   0.15994   0.16000   0.16000
     Eigenvalues ---    0.16000   0.16000   0.16000   0.16227   0.23891
     Eigenvalues ---    0.24189   0.31072   0.34497   0.34581   0.35176
     Eigenvalues ---    0.35246   0.35532   0.35758   0.37804   0.40308
     Eigenvalues ---    0.53433   0.56057   0.73981
 En-DIIS/RFO-DIIS IScMMF=        0 using points:     3    2
 RFO step:  Lambda=-5.18647642D-06.
 DidBck=F Rises=F RFO-DIIS coefs:    1.17942   -0.17942
 Iteration  1 RMS(Cart)=  0.00473957 RMS(Int)=  0.00004321
 Iteration  2 RMS(Cart)=  0.00006927 RMS(Int)=  0.00000178
 Iteration  3 RMS(Cart)=  0.00000001 RMS(Int)=  0.00000178
 Variable       Old X    -DE/DX   Delta X   Delta X   Delta X     New X
                                 (Linear)    (Quad)   (Total)
    R1        2.42086  -0.00054  -0.00033  -0.00072  -0.00105   2.41981
    R2        3.57923   0.00003   0.00014   0.00179   0.00193   3.58116
    R3        2.75167  -0.00050   0.00023  -0.00105  -0.00082   2.75085
    R4        2.75663  -0.00016  -0.00022  -0.00007  -0.00029   2.75634
    R5        2.05843  -0.00017   0.00008  -0.00037  -0.00029   2.05814
    R6        2.05265  -0.00010   0.00003  -0.00013  -0.00010   2.05255
    R7        2.07000  -0.00016   0.00007  -0.00031  -0.00023   2.06977
    R8        2.05254  -0.00010   0.00021  -0.00013   0.00008   2.05262
    R9        2.05821  -0.00008   0.00004  -0.00006  -0.00002   2.05820
   R10        2.07025  -0.00018   0.00001  -0.00039  -0.00039   2.06986
   R11        1.84179  -0.00062  -0.00014  -0.00098  -0.00113   1.84066
   R12        1.81589  -0.00037  -0.00001  -0.00049  -0.00050   1.81539
    A1        1.97610   0.00034  -0.00035   0.00431   0.00397   1.98007
    A2        2.05031  -0.00007   0.00124  -0.00001   0.00124   2.05154
    A3        2.07716  -0.00008  -0.00195  -0.00045  -0.00240   2.07476
    A4        2.07709   0.00017   0.00084   0.00112   0.00196   2.07905
[...]
 Vib (Bot)    5  0.125843D+01          0.099829          0.229866
 Vib (Bot)    6  0.114258D+01          0.057886          0.133287
 Vib (Bot)    7  0.680336D+00         -0.167277         -0.385169
 Vib (Bot)    8  0.424705D+00         -0.371913         -0.856361
 Vib (Bot)    9  0.407558D+00         -0.389811         -0.897573
 Vib (Bot)   10  0.298559D+00         -0.524970         -1.208788
 Vib (V=0)       0.629694D+03          2.799129          6.445233
 Vib (V=0)    1  0.655407D+01          0.816511          1.880086
 Vib (V=0)    2  0.277690D+01          0.443559          1.021333
 Vib (V=0)    3  0.246240D+01          0.391358          0.901136
 Vib (V=0)    4  0.203738D+01          0.309072          0.711665
 Vib (V=0)    5  0.185412D+01          0.268138          0.617412
 Vib (V=0)    6  0.174719D+01          0.242340          0.558009
 Vib (V=0)    7  0.134431D+01          0.128499          0.295880
 Vib (V=0)    8  0.115603D+01          0.062969          0.144991
 Vib (V=0)    9  0.114506D+01          0.058828          0.135458
 Vib (V=0)   10  0.108236D+01          0.034370          0.079139
 Electronic      0.200000D+01          0.301030          0.693147
 Translational   0.271057D+08          7.433061         17.115254
 Rotational      0.137217D+06          5.137409         11.829322
 ***** Axes restored to original set *****
 -------------------------------------------------------------------
 Center     Atomic                   Forces (Hartrees/Bohr)
 Number     Number              X              Y              Z
 -------------------------------------------------------------------
      1        8          -0.000001851   -0.000008281    0.000002512
      2        7           0.000025280   -0.000005392   -0.000012359
      3        6          -0.000015726   -0.000003524   -0.000000388
      4        1           0.000001973   -0.000006084   -0.000003558
      5        1           0.000003554   -0.000002590   -0.000003600
      6        1           0.000002583   -0.000003931   -0.000005694
      7        6          -0.000000361    0.000011741    0.000008885
      8        1          -0.000006318    0.000005704    0.000000274
      9        1          -0.000001969   -0.000003935    0.000001089
     10        1          -0.000004739   -0.000003929   -0.000000642
     11        8           0.000004794   -0.000000945   -0.000000760
     12        1          -0.000008579    0.000011822    0.000008052
     13        1           0.000001359    0.000009344    0.000006189
 -------------------------------------------------------------------
 Cartesian Forces:  Max     0.000025280 RMS     0.000007299
 FormGI is forming the generalized inverse of G from B-inverse, IUseBI=4.

 GradGradGradGradGradGradGradGradGradGradGradGradGradGradGradGradGradGrad
 Berny optimization.
 Internal  Forces:  Max     0.000013050 RMS     0.000004337
 Search for a local minimum.
 Step number   1 out of a maximum of    2
 All quantities printed in internal units (Hartrees-Bohrs-Radians)
 Second derivative matrix not updated -- analytic derivatives used.
 ITU=  0
     Eigenvalues ---    0.00045   0.00123   0.00140   0.00158   0.00355
     Eigenvalues ---    0.00786   0.01108   0.02253   0.05862   0.05908
     Eigenvalues ---    0.05991   0.06048   0.07936   0.12679   0.13135
     Eigenvalues ---    0.14015   0.15526   0.16353   0.16601   0.17615
     Eigenvalues ---    0.20415   0.25848   0.31389   0.32067   0.33208
     Eigenvalues ---    0.33360   0.34145   0.34838   0.35012   0.35516
     Eigenvalues ---    0.48922   0.53827   0.57893
 Angle between quadratic step and forces=  73.77 degrees.
 Linear search not attempted -- first point.
 Iteration  1 RMS(Cart)=  0.00068946 RMS(Int)=  0.00000083
 Iteration  2 RMS(Cart)=  0.00000069 RMS(Int)=  0.00000001
 Variable       Old X    -DE/DX   Delta X   Delta X   Delta X     New X
                                 (Linear)    (Quad)   (Total)
    R1        2.42013   0.00000   0.00000   0.00000   0.00000   2.42013
    R2        3.54689   0.00000   0.00000  -0.00036  -0.00036   3.54654
    R3        2.75055   0.00001   0.00000   0.00008   0.00008   2.75063
    R4        2.75613   0.00001   0.00000   0.00005   0.00005   2.75618
    R5        2.05796   0.00000   0.00000  -0.00001  -0.00001   2.05796
    R6        2.05236   0.00000   0.00000  -0.00001  -0.00001   2.05235
    R7        2.06940   0.00000   0.00000  -0.00001  -0.00001   2.06939
    R8        2.05238   0.00000   0.00000   0.00000   0.00000   2.05238
    R9        2.05751   0.00000   0.00000  -0.00002  -0.00002   2.05749
   R10        2.06895   0.00000   0.00000  -0.00002  -0.00002   2.06893
   R11        1.84149   0.00000   0.00000   0.00002   0.00002   1.84150
   R12        1.81488   0.00000   0.00000  -0.00001  -0.00001   1.81487
    A1        2.00110  -0.00001   0.00000  -0.00037  -0.00037   2.00073
    A2        2.04937   0.00000   0.00000  -0.00003  -0.00003   2.04934
    A3        2.07434   0.00001   0.00000  -0.00004  -0.00004   2.07430
    A4        2.08016  -0.00001   0.00000  -0.00011  -0.00011   2.08006
    A5        1.91736   0.00000   0.00000   0.00000   0.00000   1.91736
    A6        1.88582   0.00000   0.00000  -0.00002  -0.00002   1.88580
    A7        1.92622   0.00000   0.00000  -0.00003  -0.00003   1.92619
    A8        1.92426   0.00000   0.00000   0.00001   0.00001   1.92427
    A9        1.90375   0.00000   0.00000   0.00002   0.00002   1.90377
   A10        1.90643   0.00000   0.00000   0.00003   0.00003   1.90646
   A11        1.89688   0.00001   0.00000   0.00006   0.00006   1.89693
   A12        1.91025   0.00000   0.00000  -0.00004  -0.00004   1.91021
   A13        1.92189   0.00000   0.00000  -0.00006  -0.00006   1.92183
   A14        1.92629   0.00000   0.00000  -0.00002  -0.00002   1.92627
   A15        1.90379   0.00000   0.00000   0.00002   0.00002   1.90381
   A16        1.90477   0.00000   0.00000   0.00005   0.00005   1.90482
   A17        1.84668   0.00000   0.00000   0.00000   0.00000   1.84668
   A18        2.87886   0.00001   0.00000   0.00047   0.00047   2.87933
    D1       -3.04404   0.00000   0.00000  -0.00035  -0.00035  -3.04439
    D2       -0.32266   0.00000   0.00000  -0.00082  -0.00082  -0.32349
    D3        0.07603   0.00000   0.00000  -0.00185  -0.00185   0.07418
    D4       -2.72874   0.00000   0.00000   0.00038   0.00038  -2.72836
    D5       -0.62884   0.00000   0.00000   0.00038   0.00038  -0.62846
    D6        1.45459   0.00000   0.00000   0.00038   0.00038   1.45497
    D7        0.83451   0.00000   0.00000   0.00084   0.00084   0.83535
    D8        2.93441   0.00000   0.00000   0.00084   0.00084   2.93525
    D9       -1.26534   0.00000   0.00000   0.00084   0.00084  -1.26450
   D10        0.65643   0.00000   0.00000   0.00143   0.00143   0.65785
   D11        2.76132   0.00000   0.00000   0.00141   0.00141   2.76272
   D12       -1.42798   0.00000   0.00000   0.00140   0.00140  -1.42658
   D13       -2.91286   0.00000   0.00000   0.00096   0.00096  -2.91190
   D14       -0.80797   0.00000   0.00000   0.00094   0.00094  -0.80703
   D15        1.28591   0.00000   0.00000   0.00094   0.00094   1.28685
   D16       -2.71576   0.00000   0.00000   0.00131   0.00131  -2.71445
         Item               Value     Threshold  Converged?
 Maximum Force            0.000013     0.000450     YES
 RMS     Force            0.000004     0.000300     YES
 Maximum Displacement     0.001827     0.001800     NO 
 RMS     Displacement     0.000690     0.001200     YES
 Predicted change in Energy=-1.727036D-08
 GradGradGradGradGradGradGradGradGradGradGradGradGradGradGradGradGradGrad

 1\1\GINC-NODE103\Freq\UB3LYP\Aug-CC-pVTZ\C2H8N1O2(2)\KAESER\30-Sep-202
 1\0\\#N Geom=AllCheck Guess=TCheck SCRF=Check GenChk UB3LYP/Aug-CC-pVT
 Z Freq\\Title Card Required\\0,2\O,0.0845537764,-0.9728637552,0.094965
 3048\N,-0.7286683398,-0.0120908338,-0.1410858483\C,-2.1512216513,-0.31
 99671085,-0.1299782284\H,-2.6927916516,0.4120512964,-0.7273315465\H,-2
 .283376549,-1.3151510124,-0.5443190605\H,-2.5370749656,-0.3017256229,0
 .8947078993\C,-0.2951404194,1.3563501771,0.1169684726\H,0.7517443397,1
 .4472451567,-0.1574848142\H,-0.9016308262,2.0453148725,-0.4686572347\H
 ,-0.4083032806,1.5930743255,1.1799019532\O,2.721056,0.0394519784,0.265
 4781728\H,1.8854762574,-0.4602887279,0.2247089816\H,3.4066423101,-0.57
 42987461,-0.0095420517\\Version=ES64L-G09RevD.01\State=2-A\HF=-286.289
 82\S2=0.754733\S2-1=0.\S2A=0.750015\RMSD=3.065e-09\RMSF=7.299e-06\Zero
 Point=0.1077882\Thermal=0.1164449\Dipole=-1.2556646,0.3601437,-0.27340
 15\DipoleDeriv=-0.7998643,0.0344836,0.0265253,0.0418389,-0.5074792,-0.
 0846245,-0.0610303,0.0162286,-0.258182,0.2060075,-0.1240342,0.0181256,
 -0.1811262,0.1714748,0.0235158,-0.0605762,0.0910179,-0.1838867,0.29844
 14,0.0334147,-0.0506643,0.0125112,0.097595,-0.028438,0.0472843,-0.0670
 73,0.2841523,-0.0163021,0.0143254,-0.0210674,0.068314,-0.007276,0.0832
 711,-0.0590766,0.0775838,0.0203683,0.0338026,0.0158339,0.0102193,-0.04
 98133,-0.0254974,-0.054461,-0.01725,-0.0484756,0.0593999,-0.0570796,0.
 0050321,-0.0092798,-0.0125096,0.069122,-0.0234828,0.1064851,0.0022882,
 -0.1150841,0.0279694,-0.00248,0.0193276,0.0422528,0.2691945,0.0552716,
 0.0553508,-0.048762,0.2945713,0.0695418,-0.0511506,0.0263368,-0.014461
 ,0.0463373,-0.0225121,0.0343074,-0.0083361,0.0660154,0.0103225,0.07476
 62,-0.0741734,0.0298437,-0.0223986,0.0261843,-0.07518,0.0673856,0.0159
 974,0.0699582,-0.010324,0.0398007,-0.0029279,-0.0320478,0.0211194,0.01
 80062,-0.0850911,-0.1146642,-0.9334443,0.0066862,-0.0353604,-0.1168376
 ,-0.4079433,0.0723404,-0.0513925,0.0774394,-0.6013576,0.8371535,-0.042
 7721,0.0260469,0.1096307,0.1732028,-0.0157675,0.0390105,-0.0254813,0.2
 337963,0.2534933,0.0462187,0.024163,0.0732841,0.1757159,-0.0524169,0.0
 240614,-0.0487243,0.2988737\Polar=62.5135969,-2.9632871,54.2629225,1.3
 571582,0.2971504,43.131281\PG=C01 [X(C2H8N1O2)]\NImag=0\\0.28801313,-0
 .21266051,0.34504846,0.06588525,-0.06435013,0.02702895,-0.24501363,0.1
 7095550,-0.06371827,0.61175478,0.16997581,-0.30108172,0.06201825,-0.06
 556340,0.63566056,-0.05865260,0.05519947,-0.03334266,0.07536150,-0.022
 54086,0.14284247,-0.03936817,0.01436915,-0.00181203,-0.18173490,-0.036
 76431,-0.00602227,0.45345270,0.04401604,0.00216895,0.00277347,-0.03855
 620,-0.11021863,-0.00291847,-0.03479955,0.61636356,-0.01477024,0.00139
 192,0.00207700,0.01097665,0.00260960,-0.05827475,0.01757525,0.00363940
 ,0.54215530,-0.00909460,-0.00071112,-0.00213502,-0.01850357,0.02637471
 ,-0.01481546,-0.10772789,0.07827421,-0.06843102,0.12474453,-0.00098091
 ,0.00188536,0.00071143,-0.00331653,0.00535356,-0.00648576,0.08682598,-
 0.17395261,0.10035710,-0.09325835,0.18125371,0.00191975,-0.00124335,0.
 00076242,0.00044974,-0.00169365,0.00164978,-0.07253506,0.09951559,-0.1
 2957619,0.07694356,-0.10974552,0.13470366,0.00328190,-0.00055850,0.000
 92196,-0.01271543,-0.03845945,-0.01339425,-0.04977563,-0.01716126,-0.0
 0932459,0.00293798,0.01321587,0.00781090,0.05999241,0.00203288,0.00220
 741,0.00057702,-0.00360688,-0.01026547,-0.00108654,-0.02853022,-0.2776
 5485,-0.09691598,-0.00243182,-0.01526201,-0.00782434,0.03318004,0.2983
 1032,-0.00052322,0.00066483,-0.00035704,0.00043943,0.00196601,0.000659
 28,-0.01311983,-0.09775719,-0.08853174,0.00385926,0.01697732,0.0083095
 2,0.01151115,0.10528516,0.08998640,0.00088588,0.00002283,-0.00150820,-
 0.02690402,-0.00397716,0.03273639,-0.06978131,0.00271631,0.07391855,0.
 00689205,-0.00106426,-0.01463701,0.00209148,0.00080677,-0.00318948,0.0
 8547851,-0.00038028,0.00097021,-0.00000812,-0.00489126,-0.00074279,0.0
 0753925,0.00195533,-0.04886886,-0.00608912,-0.00739781,0.00097901,0.02
 096338,0.00975554,0.00141880,-0.02798242,0.00041416,0.04541168,0.00095
 833,-0.00181851,0.00030767,0.00504694,0.00377103,0.00609483,0.07233208
 ,-0.00724860,-0.27052761,0.00492413,-0.00126844,-0.01589873,0.00288797
 ,0.00046307,-0.01095097,-0.08662259,0.00544952,0.29072309,0.00795987,0
 .03436244,0.00325154,-0.11801688,-0.03838403,-0.01064589,-0.00692895,-
 0.03215518,-0.00923246,0.00045998,-0.00058691,-0.00006249,-0.00569590,
 -0.00126167,0.00027931,0.00114471,0.00045752,0.00010451,0.61261631,0.0
 0826254,-0.04321346,-0.00326169,-0.03989643,-0.16604403,-0.01484005,-0
 .00689280,-0.00322240,-0.00506640,0.00064974,-0.00041548,0.00053094,0.
 00154786,0.00109101,0.00079091,0.00212227,0.00085880,-0.00026576,-0.04
 699663,0.46207863,0.00246094,0.01338234,0.00491790,-0.01799749,-0.0305
 5845,-0.06355051,0.00388334,0.00339931,0.00200239,-0.00069521,-0.00028
 320,-0.00034565,-0.00006895,0.00014027,0.00029044,0.00065250,0.0005766
 0,0.00053153,-0.00208688,-0.03520776,0.53434547,0.00152778,0.00192397,
 -0.00012636,-0.01152187,-0.00406076,-0.00043704,0.00093329,-0.00117017
 ,-0.00001330,0.00025319,-0.00000034,0.00012228,-0.00024510,-0.00010550
 ,0.00022384,-0.00004423,0.00000131,0.00012198,-0.30313375,-0.02088206,
 0.06942885,0.32593729,0.00013136,0.00319849,-0.00036061,-0.03919985,-0
 .00931455,0.00676926,0.00091023,-0.00556483,-0.00052838,0.00014258,0.0
 0037366,-0.00024524,-0.00159238,-0.00024041,0.00001735,-0.00008706,-0.
 00006451,0.00016695,-0.00838085,-0.05056335,0.00437880,0.02290787,0.06
 016502,-0.00018631,0.00125871,-0.00035660,-0.00985810,-0.00199055,0.00
 117454,-0.00055916,-0.00142907,-0.00003134,0.00029784,-0.00018933,0.00
 012009,-0.00041178,-0.00034688,0.00032945,-0.00034574,-0.00025088,0.00
 010960,0.07123995,0.00672050,-0.06649368,-0.07332650,-0.00335254,0.067
 42355,0.00155731,-0.00188654,-0.00068270,0.00589335,-0.00684701,0.0073
 9021,-0.00042111,-0.00056626,0.00024501,-0.00039052,-0.00081106,0.0000
 0539,0.00033817,0.00001758,0.00021846,-0.00014451,-0.00001703,-0.00015
 381,-0.13673632,0.09393861,-0.08327684,-0.01185985,0.01845707,-0.01765
 856,0.14009643,-0.00213344,-0.00796062,0.00046178,0.02222219,-0.022754
 62,0.01390425,0.00066632,0.00035689,0.00086535,-0.00129700,-0.00013117
 ,-0.00035047,0.00017439,0.00040197,-0.00025502,-0.00040030,-0.00000426
 ,0.00002245,0.08541777,-0.14687256,0.08670996,-0.00106504,0.00331245,-
 0.00297062,-0.09921468,0.16804599,0.00081105,-0.00349014,0.00067708,0.
 00532471,-0.00494945,0.00442666,-0.00040987,0.00010351,-0.00018443,0.0
 0000505,-0.00026392,0.00050890,0.00026846,-0.00014897,0.00011738,-0.00
 011135,0.00017043,-0.00026733,-0.08302792,0.09204984,-0.12749632,0.004
 04342,-0.00704295,0.00536484,0.09106635,-0.09594660,0.13272478,0.00056
 596,-0.00011552,0.00022128,0.00009775,-0.00496107,-0.01199255,0.001128
 61,0.00040958,-0.00055934,0.00000269,-0.00002622,-0.00009192,-0.000089
 77,0.00000706,0.00028896,0.00001183,0.00002221,0.00047701,-0.05178074,
 0.00542431,0.02867486,-0.00069012,0.00579661,0.03047659,0.00228614,-0.
 00369286,-0.01808597,0.04858500,-0.00013332,0.00123785,0.00183728,-0.0
 0154569,-0.02030392,-0.03606649,0.00218096,0.00077220,-0.00029961,-0.0
 0040476,-0.00011917,0.00010440,-0.00011368,-0.00003549,0.00028598,-0.0
 0058877,0.00004324,0.00073387,0.00621270,-0.05325858,-0.04268145,0.000
 69937,0.00123442,0.00206229,-0.00296408,0.00564778,0.01956454,-0.00288
 930,0.06488507,0.00179593,-0.00098973,0.00063501,-0.00504323,-0.008778
 11,-0.00166032,0.00066036,-0.00002035,0.00036746,-0.00002583,0.0001656
 6,-0.00024605,-0.00021157,-0.00017041,0.00014452,-0.00081816,-0.000373
 12,-0.00009882,0.02992526,-0.04155593,-0.28413650,0.00034466,-0.000441
 27,-0.00749931,0.00278157,-0.00243591,-0.01583779,-0.02928942,0.054642
 56,0.30833425,-0.01582101,-0.00247492,-0.00126619,0.00071884,-0.004094
 68,-0.00036464,0.00030187,0.00120606,-0.00009253,-0.00057006,0.0000971
 3,-0.00001583,0.00007992,-0.00001171,0.00000570,-0.00039798,-0.0000477
 1,0.00019987,-0.00052925,0.00056716,-0.00041216,-0.00135879,0.00004595
 ,0.00039662,-0.00065722,0.00010447,0.00004288,0.00000719,0.00026176,0.
 00024697,0.64047062,-0.00330419,0.00450302,0.00010732,-0.00135687,-0.0
 0234971,-0.00060173,-0.00019839,0.00099555,0.00000022,-0.00035557,-0.0
 0003507,-0.00004025,0.00016113,0.00007207,0.00000937,-0.00016197,-0.00
 006128,0.00003171,-0.00074776,-0.00150811,0.00073458,0.00096872,-0.000
 31047,-0.00010258,0.00047336,0.00034572,-0.00008209,0.00012457,0.00031
 430,0.00007094,-0.02680890,0.39902437,-0.00084733,0.00033992,0.0035646
 1,0.00033167,-0.00015097,0.00022139,0.00015658,0.00002811,-0.00050365,
 -0.00003381,-0.00004625,-0.00000904,-0.00001064,0.00000086,-0.00003245
 ,0.00001116,0.00001094,0.00007033,0.00065700,-0.00032060,0.00013637,-0
 .00036474,0.00009728,-0.00095958,0.00020449,0.00003889,0.00005964,-0.0
 0053071,0.00008318,0.00025949,-0.09031103,0.12124706,0.05372123,0.0066
 9017,-0.00196952,0.00146553,-0.00424219,0.00694468,0.00074264,-0.00000
 521,-0.00216741,-0.00028856,0.00096585,-0.00011389,0.00008093,-0.00019
 602,-0.00009846,0.00000107,0.00073021,0.00011891,-0.00025871,0.0001971
 8,0.00188956,-0.00041869,0.00074486,0.00076933,-0.00014332,0.00006987,
 -0.00070956,0.00002434,-0.00011700,-0.00069502,-0.00034494,-0.33968484
 ,-0.15928265,-0.00410204,0.36082741,-0.00287585,-0.00828776,-0.0001534
 8,0.00430896,0.00257882,0.00115058,0.00034293,-0.00130416,0.00000486,0
 .00045181,0.00005998,0.00003914,-0.00016827,-0.00006819,0.00000524,0.0
 0021891,0.00006424,-0.00004160,0.00211161,0.00121943,-0.00088370,0.000
 91413,-0.00230325,0.00093691,-0.00072747,-0.00042851,0.00006717,-0.000
 08737,-0.00044954,-0.00010955,-0.21169920,-0.16291673,-0.01826146,0.17
 454506,0.15936864,0.00149700,-0.00004266,-0.00599335,-0.00138140,0.000
 16238,-0.00017524,-0.00013166,-0.00007420,0.00106261,0.00011888,0.0000
 5615,0.00001532,0.00003276,0.00004589,0.00001863,-0.00010114,-0.000001
 03,-0.00007986,-0.00005849,0.00016982,-0.00026311,-0.00031835,0.000861
 83,0.00081779,-0.00001879,-0.00005839,-0.00014807,0.00048503,-0.000278
 28,-0.00029531,-0.01893801,-0.02518113,-0.01289032,0.00549926,0.017841
 13,0.01810440,-0.00118460,-0.00125726,-0.00049678,0.00018777,-0.000183
 31,0.00009394,-0.00007331,-0.00004618,-0.00000341,0.00003036,0.0000195
 0,0.00000976,-0.00000401,0.00000193,0.00000534,0.00003739,0.00000912,-
 0.00001772,0.00044374,0.00026587,-0.00014426,-0.00054271,0.00009912,0.
 00007848,-0.00003175,-0.00007227,0.00004886,-0.00000754,-0.00002017,-0
 .00002159,-0.28255928,0.19048851,0.09483938,-0.02598028,0.03266476,0.0
 1331492,0.30968420,-0.00195012,-0.00067619,-0.00035251,0.00044648,-0.0
 0051750,-0.00002291,-0.00006563,0.00012919,0.00003104,-0.00003662,0.00
 001024,-0.00001063,0.00001872,0.00002485,-0.00000754,-0.00002172,-0.00
 000427,0.00000430,-0.00004901,-0.00014992,0.00029270,-0.00013151,0.000
 07732,-0.00034595,0.00014751,0.00004095,-0.00003135,-0.00001202,0.0000
 3183,-0.00000478,0.24285457,-0.23807367,-0.10306697,-0.01923103,0.0124
 6702,0.00649850,-0.22196962,0.22664016,-0.00034856,-0.00030267,0.00007
 901,0.00006786,0.00013477,-0.00006547,-0.00001774,-0.00001150,-0.00003
 505,-0.00001239,0.00001478,0.00000598,-0.00001142,-0.00001916,0.000016
 59,0.00001508,-0.00000544,-0.00001373,-0.00034344,0.00025619,0.0000616
 8,0.00030127,-0.00032049,0.00000066,-0.00012077,0.00001435,0.00005466,
 -0.00007380,0.00001174,0.00003338,0.11050835,-0.09619342,-0.04363803,-
 0.00225752,-0.00059525,-0.00017349,-0.10770691,0.09701609,0.04367380\\
 0.00000185,0.00000828,-0.00000251,-0.00002528,0.00000539,0.00001236,0.
 00001573,0.00000352,0.00000039,-0.00000197,0.00000608,0.00000356,-0.00
 000355,0.00000259,0.00000360,-0.00000258,0.00000393,0.00000569,0.00000
 036,-0.00001174,-0.00000889,0.00000632,-0.00000570,-0.00000027,0.00000
 197,0.00000393,-0.00000109,0.00000474,0.00000393,0.00000064,-0.0000047
 9,0.00000094,0.00000076,0.00000858,-0.00001182,-0.00000805,-0.00000136
 ,-0.00000934,-0.00000619\\\@


 HE WHO LOVES TO READ, AND KNOWS HOW TO REFLECT,
 HAS LAID BY A PERPETUAL FEAST FOR HIS OLD AGE.
 -- UNCLE ESEK, "SCRIBNER'S MONTHLY", SEPT. 1880
 Job cpu time:       0 days  4 hours 58 minutes 55.2 seconds.
 File lengths (MBytes):  RWF=    294 Int=      0 D2E=      0 Chk=     18 Scr=      1
 Normal termination of Gaussian 09 at Thu Sep 30 17:11:57 2021.
