 Entering Gaussian System, Link 0=/opt/cluster/programs/g09/g09_d.01/g09//g09
 Input=/home/kaeser/nnprojects/hydra_challenge/b3lypd3/288-32-4.com
 Output=/scratch/kaeser/288-32-4/288-32-4.out
 Initial command:
 /opt/cluster/programs/g09/g09_d.01/g09/l1.exe "/scratch/kaeser/288-32-4/Gau-188658.inp" -scrdir="/scratch/kaeser/288-32-4/"
 Entering Link 1 = /opt/cluster/programs/g09/g09_d.01/g09/l1.exe PID=    188660.
  
 Copyright (c) 1988,1990,1992,1993,1995,1998,2003,2009,2013,
            Gaussian, Inc.  All Rights Reserved.
  
 This is part of the Gaussian(R) 09 program.  It is based on
 the Gaussian(R) 03 system (copyright 2003, Gaussian, Inc.),
 the Gaussian(R) 98 system (copyright 1998, Gaussian, Inc.),
 the Gaussian(R) 94 system (copyright 1995, Gaussian, Inc.),
 the Gaussian 92(TM) system (copyright 1992, Gaussian, Inc.),
 the Gaussian 90(TM) system (copyright 1990, Gaussian, Inc.),
 the Gaussian 88(TM) system (copyright 1988, Gaussian, Inc.),
 the Gaussian 86(TM) system (copyright 1986, Carnegie Mellon
 University), and the Gaussian 82(TM) system (copyright 1983,
 Carnegie Mellon University). Gaussian is a federally registered
 trademark of Gaussian, Inc.
  
 This software contains proprietary and confidential information,
 including trade secrets, belonging to Gaussian, Inc.
  
 This software is provided under written license and may be
 used, copied, transmitted, or stored only in accord with that
 written license.
  
 The following legend is applicable only to US Government
 contracts under FAR:
  
                    RESTRICTED RIGHTS LEGEND
  
 Use, reproduction and disclosure by the US Government is
 subject to restrictions as set forth in subparagraphs (a)
 and (c) of the Commercial Computer Software - Restricted
 Rights clause in FAR 52.227-19.
  
 Gaussian, Inc.
 340 Quinnipiac St., Bldg. 40, Wallingford CT 06492
  
  
 ---------------------------------------------------------------
 Warning -- This program may not be used in any manner that
 competes with the business of Gaussian, Inc. or will provide
 assistance to any competitor of Gaussian, Inc.  The licensee
 of this program is prohibited from giving any competitor of
 Gaussian, Inc. access to this program.  By using this program,
 the user acknowledges that Gaussian, Inc. is engaged in the
 business of creating and licensing software in the field of
 computational chemistry and represents and warrants to the
 licensee that it is not a competitor of Gaussian, Inc. and that
 it will not use this program in any manner prohibited above.
 ---------------------------------------------------------------
  

 Cite this work as:
 Gaussian 09, Revision D.01,
 M. J. Frisch, G. W. Trucks, H. B. Schlegel, G. E. Scuseria, 
 M. A. Robb, J. R. Cheeseman, G. Scalmani, V. Barone, B. Mennucci, 
 G. A. Petersson, H. Nakatsuji, M. Caricato, X. Li, H. P. Hratchian, 
 A. F. Izmaylov, J. Bloino, G. Zheng, J. L. Sonnenberg, M. Hada, 
 M. Ehara, K. Toyota, R. Fukuda, J. Hasegawa, M. Ishida, T. Nakajima, 
 Y. Honda, O. Kitao, H. Nakai, T. Vreven, J. A. Montgomery, Jr., 
 J. E. Peralta, F. Ogliaro, M. Bearpark, J. J. Heyd, E. Brothers, 
 K. N. Kudin, V. N. Staroverov, T. Keith, R. Kobayashi, J. Normand, 
 K. Raghavachari, A. Rendell, J. C. Burant, S. S. Iyengar, J. Tomasi, 
 M. Cossi, N. Rega, J. M. Millam, M. Klene, J. E. Knox, J. B. Cross, 
 V. Bakken, C. Adamo, J. Jaramillo, R. Gomperts, R. E. Stratmann, 
 O. Yazyev, A. J. Austin, R. Cammi, C. Pomelli, J. W. Ochterski, 
 R. L. Martin, K. Morokuma, V. G. Zakrzewski, G. A. Voth, 
 P. Salvador, J. J. Dannenberg, S. Dapprich, A. D. Daniels, 
 O. Farkas, J. B. Foresman, J. V. Ortiz, J. Cioslowski, 
 and D. J. Fox, Gaussian, Inc., Wallingford CT, 2013.
 
 ******************************************
 Gaussian 09:  ES64L-G09RevD.01 24-Apr-2013
                30-Sep-2021 
 ******************************************
 %chk=288-32-4.chk
 %mem=2GB
 %nprocshared=2
 Will use up to    2 processors via shared memory.
 ----------------------------------------------------------------------
 # opt freq b3lyp/aug-cc-pvtz EmpiricalDispersion=GD3 geom=connectivity
 ----------------------------------------------------------------------
 1/14=-1,18=20,19=15,26=3,38=1,57=2/1,3;
 2/9=110,12=2,17=6,18=5,40=1/2;
 3/5=16,6=1,7=10,11=2,16=1,25=1,30=1,71=1,74=-5,124=31/1,2,3;
 4//1;
 5/5=2,38=5/2;
 6/7=2,8=2,9=2,10=2,28=1/1;
 7//1,2,3,16;
 1/14=-1,18=20,19=15,26=3/3(2);
 2/9=110/2;
 99//99;
 2/9=110/2;
 3/5=16,6=1,7=10,11=2,16=1,25=1,30=1,71=1,74=-5,124=31/1,2,3;
 4/5=5,16=3,69=1/1;
 5/5=2,38=5/2;
 7//1,2,3,16;
 1/14=-1,18=20,19=15,26=3/3(-5);
 2/9=110/2;
 6/7=2,8=2,9=2,10=2,19=2,28=1/1;
 99/9=1/99;
 -------------------
 Title Card Required
 -------------------
 Symbolic Z-matrix:
 Charge =  0 Multiplicity = 1
 C                     0.96698   1.15704  -0.00043 
 C                    -0.01209  -0.74848   0.00134 
 C                     1.96377   0.22384   0.00501 
 H                     1.06078   2.22656  -0.00371 
 H                    -0.76038  -1.5195   -0.00542 
 H                     3.03283   0.30759   0.00801 
 N                     1.32108  -0.99081   0.006 
 H                     1.75775  -1.893     0.00514 
 N                    -0.26005   0.54079  -0.00201 
 O                    -3.05658  -0.0385   -0.09276 
 H                    -3.36612   0.1066    0.80145 
 H                    -2.21137   0.43555  -0.12678 
 
 Add virtual bond connecting atoms H12        and N9         Dist= 3.70D+00.

 GradGradGradGradGradGradGradGradGradGradGradGradGradGradGradGradGradGrad
 Berny optimization.
 Initialization pass.
                           ----------------------------
                           !    Initial Parameters    !
                           ! (Angstroms and Degrees)  !
 --------------------------                            --------------------------
 ! Name  Definition              Value          Derivative Info.                !
 --------------------------------------------------------------------------------
 ! R1    R(1,3)                  1.3655         estimate D2E/DX2                !
 ! R2    R(1,4)                  1.0736         estimate D2E/DX2                !
 ! R3    R(1,9)                  1.3731         estimate D2E/DX2                !
 ! R4    R(2,5)                  1.0745         estimate D2E/DX2                !
 ! R5    R(2,7)                  1.355          estimate D2E/DX2                !
 ! R6    R(2,9)                  1.3129         estimate D2E/DX2                !
 ! R7    R(3,6)                  1.0723         estimate D2E/DX2                !
 ! R8    R(3,7)                  1.3742         estimate D2E/DX2                !
 ! R9    R(7,8)                  1.0023         estimate D2E/DX2                !
 ! R10   R(9,12)                 1.9581         estimate D2E/DX2                !
 ! R11   R(10,11)                0.9573         estimate D2E/DX2                !
 ! R12   R(10,12)                0.9697         estimate D2E/DX2                !
 ! A1    A(3,1,4)              128.1014         estimate D2E/DX2                !
 ! A2    A(3,1,9)              110.2199         estimate D2E/DX2                !
 ! A3    A(4,1,9)              121.6787         estimate D2E/DX2                !
 ! A4    A(5,2,7)              123.8412         estimate D2E/DX2                !
 ! A5    A(5,2,9)              124.9688         estimate D2E/DX2                !
 ! A6    A(7,2,9)              111.1888         estimate D2E/DX2                !
 ! A7    A(1,3,6)              132.4076         estimate D2E/DX2                !
 ! A8    A(1,3,7)              105.2293         estimate D2E/DX2                !
 ! A9    A(6,3,7)              122.3632         estimate D2E/DX2                !
 ! A10   A(2,7,3)              107.5817         estimate D2E/DX2                !
 ! A11   A(2,7,8)              126.1291         estimate D2E/DX2                !
 ! A12   A(3,7,8)              126.2884         estimate D2E/DX2                !
 ! A13   A(1,9,2)              105.7803         estimate D2E/DX2                !
 ! A14   A(1,9,12)             156.1653         estimate D2E/DX2                !
 ! A15   A(2,9,12)              97.7926         estimate D2E/DX2                !
 ! A16   A(11,10,12)           103.9164         estimate D2E/DX2                !
 ! A17   A(9,12,10)            153.2084         estimate D2E/DX2                !
 ! D1    D(4,1,3,6)              0.0521         estimate D2E/DX2                !
 ! D2    D(4,1,3,7)           -179.9375         estimate D2E/DX2                !
 ! D3    D(9,1,3,6)           -179.9778         estimate D2E/DX2                !
 ! D4    D(9,1,3,7)              0.0326         estimate D2E/DX2                !
 ! D5    D(3,1,9,2)             -0.0479         estimate D2E/DX2                !
 ! D6    D(3,1,9,12)          -171.2979         estimate D2E/DX2                !
 ! D7    D(4,1,9,2)            179.9244         estimate D2E/DX2                !
 ! D8    D(4,1,9,12)             8.6744         estimate D2E/DX2                !
 ! D9    D(5,2,7,3)            179.592          estimate D2E/DX2                !
 ! D10   D(5,2,7,8)             -0.097          estimate D2E/DX2                !
 ! D11   D(9,2,7,3)             -0.0255         estimate D2E/DX2                !
 ! D12   D(9,2,7,8)           -179.7145         estimate D2E/DX2                !
 ! D13   D(5,2,9,1)           -179.5677         estimate D2E/DX2                !
 ! D14   D(5,2,9,12)            -3.125          estimate D2E/DX2                !
 ! D15   D(7,2,9,1)              0.0446         estimate D2E/DX2                !
 ! D16   D(7,2,9,12)           176.4874         estimate D2E/DX2                !
 ! D17   D(1,3,7,2)             -0.0051         estimate D2E/DX2                !
 ! D18   D(1,3,7,8)            179.6833         estimate D2E/DX2                !
 ! D19   D(6,3,7,2)           -179.996          estimate D2E/DX2                !
 ! D20   D(6,3,7,8)             -0.3076         estimate D2E/DX2                !
 ! D21   D(1,9,12,10)         -176.3476         estimate D2E/DX2                !
 ! D22   D(2,9,12,10)           12.1492         estimate D2E/DX2                !
 ! D23   D(11,10,12,9)          95.2269         estimate D2E/DX2                !
 --------------------------------------------------------------------------------
 Trust Radius=3.00D-01 FncErr=1.00D-07 GrdErr=1.00D-06
 Number of steps in this run=     62 maximum allowed number of steps=    100.
 GradGradGradGradGradGradGradGradGradGradGradGradGradGradGradGradGradGrad

                          Input orientation:                          
 ---------------------------------------------------------------------
 Center     Atomic      Atomic             Coordinates (Angstroms)
 Number     Number       Type             X           Y           Z
 ---------------------------------------------------------------------
      1          6           0        0.966984    1.157042   -0.000428
      2          6           0       -0.012092   -0.748484    0.001340
      3          6           0        1.963767    0.223837    0.005007
      4          1           0        1.060783    2.226556   -0.003705
      5          1           0       -0.760379   -1.519504   -0.005422
      6          1           0        3.032833    0.307588    0.008005
      7          7           0        1.321077   -0.990812    0.006002
      8          1           0        1.757746   -1.892999    0.005139
      9          7           0       -0.260051    0.540794   -0.002013
     10          8           0       -3.056579   -0.038503   -0.092764
     11          1           0       -3.366117    0.106595    0.801446
     12          1           0       -2.211371    0.435549   -0.126783
 ---------------------------------------------------------------------
                    Distance matrix (angstroms):
                    1          2          3          4          5
     1  C    0.000000
     2  C    2.142340   0.000000
     3  C    1.365459   2.202144   0.000000
     4  H    1.073624   3.162586   2.196893   0.000000
     5  H    3.185546   1.074454   3.234241   4.165285   0.000000
     6  H    2.233691   3.222872   1.072346   2.751646   4.210333
     7  N    2.176856   1.355022   1.374199   3.227895   2.147581
     8  H    3.150886   2.107666   2.126838   4.178106   2.545695
     9  N    1.373091   1.312910   2.246303   2.141588   2.120181
    10  O    4.198442   3.127592   5.028146   4.700116   2.733775
    11  H    4.530144   3.552578   5.390336   4.973927   3.175705
    12  H    3.261665   2.501035   4.182579   3.732271   2.437691
                    6          7          8          9         10
     6  H    0.000000
     7  N    2.148477   0.000000
     8  H    2.543312   1.002308   0.000000
     9  N    3.301147   2.201328   3.161472   0.000000
    10  O    6.100071   4.481129   5.160084   2.857340   0.000000
    11  H    6.451086   4.879223   5.557558   3.237549   0.957329
    12  H    5.247496   3.811867   4.603632   1.958135   0.969670
                   11         12
    11  H    0.000000
    12  H    1.517649   0.000000
 Stoichiometry    C3H6N2O
 Framework group  C1[X(C3H6N2O)]
 Deg. of freedom    30
 Full point group                 C1      NOp   1
 Largest Abelian subgroup         C1      NOp   1
 Largest concise Abelian subgroup C1      NOp   1
                         Standard orientation:                         
 ---------------------------------------------------------------------
 Center     Atomic      Atomic             Coordinates (Angstroms)
 Number     Number       Type             X           Y           Z
 ---------------------------------------------------------------------
      1          6           0        0.966984    1.157042   -0.000428
      2          6           0       -0.012092   -0.748484    0.001340
      3          6           0        1.963767    0.223837    0.005007
      4          1           0        1.060783    2.226556   -0.003705
      5          1           0       -0.760379   -1.519504   -0.005422
      6          1           0        3.032833    0.307588    0.008005
      7          7           0        1.321077   -0.990812    0.006002
      8          1           0        1.757746   -1.892999    0.005139
      9          7           0       -0.260051    0.540794   -0.002013
     10          8           0       -3.056579   -0.038503   -0.092764
     11          1           0       -3.366117    0.106595    0.801446
     12          1           0       -2.211371    0.435549   -0.126783
 ---------------------------------------------------------------------
 Rotational constants (GHZ):      9.4885912      1.9174902      1.6029862
 Standard basis: Aug-CC-pVTZ (5D, 7F)
 There are   480 symmetry adapted cartesian basis functions of A   symmetry.
 There are   414 symmetry adapted basis functions of A   symmetry.
   414 basis functions,   594 primitive gaussians,   480 cartesian basis functions
    23 alpha electrons       23 beta electrons
       nuclear repulsion energy       224.1184124275 Hartrees.
 NAtoms=   12 NActive=   12 NUniq=   12 SFac= 1.00D+00 NAtFMM=   60 NAOKFM=F Big=F
 Integral buffers will be    131072 words long.
 Raffenetti 2 integral format.
 Two-electron integral symmetry is turned on.
 Nuclear repulsion after empirical dispersion term =      224.1131739982 Hartrees.
 One-electron integrals computed using PRISM.
 NBasis=   414 RedAO= T EigKep=  3.91D-06  NBF=   414
 NBsUse=   414 1.00D-06 EigRej= -1.00D+00 NBFU=   414
 ExpMin= 2.53D-02 ExpMax= 1.53D+04 ExpMxC= 5.22D+02 IAcc=3 IRadAn=         5 AccDes= 0.00D+00
 Harris functional with IExCor=  402 and IRadAn=       5 diagonalized for initial guess.
 HarFok:  IExCor=  402 AccDes= 0.00D+00 IRadAn=         5 IDoV= 1 UseB2=F ITyADJ=14
 ICtDFT=  3500011 ScaDFX=  1.000000  1.000000  1.000000  1.000000
 FoFCou: FMM=F IPFlag=           0 FMFlag=      100000 FMFlg1=           0
         NFxFlg=           0 DoJE=T BraDBF=F KetDBF=T FulRan=T
         wScrn=  0.000000 ICntrl=     500 IOpCl=  0 I1Cent=   200000004 NGrid=           0
         NMat0=    1 NMatS0=      1 NMatT0=    0 NMatD0=    1 NMtDS0=    0 NMtDT0=    0
 Petite list used in FoFCou.
 Requested convergence on RMS density matrix=1.00D-08 within 128 cycles.
 Requested convergence on MAX density matrix=1.00D-06.
 Requested convergence on             energy=1.00D-06.
 No special actions if energy rises.
 SCF Done:  E(RB3LYP) =  -302.786214705     A.U. after   12 cycles
            NFock= 12  Conv=0.26D-08     -V/T= 2.0060

 **********************************************************************

            Population analysis using the SCF density.

 **********************************************************************

 Orbital symmetries:
       Occupied  (A) (A) (A) (A) (A) (A) (A) (A) (A) (A) (A) (A)
                 (A) (A) (A) (A) (A) (A) (A) (A) (A) (A) (A)
       Virtual   (A) (A) (A) (A) (A) (A) (A) (A) (A) (A) (A) (A)
                 (A) (A) (A) (A) (A) (A) (A) (A) (A) (A) (A) (A)
                 (A) (A) (A) (A) (A) (A) (A) (A) (A) (A) (A) (A)
                 (A) (A) (A) (A) (A) (A) (A) (A) (A) (A) (A) (A)
                 (A) (A) (A) (A) (A) (A) (A) (A) (A) (A) (A) (A)
                 (A) (A) (A) (A) (A) (A) (A) (A) (A) (A) (A) (A)
                 (A) (A) (A) (A) (A) (A) (A) (A) (A) (A) (A) (A)
                 (A) (A) (A) (A) (A) (A) (A) (A) (A) (A) (A) (A)
                 (A) (A) (A) (A) (A) (A) (A) (A) (A) (A) (A) (A)
                 (A) (A) (A) (A) (A) (A) (A) (A) (A) (A) (A) (A)
                 (A) (A) (A) (A) (A) (A) (A) (A) (A) (A) (A) (A)
                 (A) (A) (A) (A) (A) (A) (A) (A) (A) (A) (A) (A)
                 (A) (A) (A) (A) (A) (A) (A) (A) (A) (A) (A) (A)
                 (A) (A) (A) (A) (A) (A) (A) (A) (A) (A) (A) (A)
                 (A) (A) (A) (A) (A) (A) (A) (A) (A) (A) (A) (A)
                 (A) (A) (A) (A) (A) (A) (A) (A) (A) (A) (A) (A)
                 (A) (A) (A) (A) (A) (A) (A) (A) (A) (A) (A) (A)
                 (A) (A) (A) (A) (A) (A) (A) (A) (A) (A) (A) (A)
                 (A) (A) (A) (A) (A) (A) (A) (A) (A) (A) (A) (A)
                 (A) (A) (A) (A) (A) (A) (A) (A) (A) (A) (A) (A)
                 (A) (A) (A) (A) (A) (A) (A) (A) (A) (A) (A) (A)
                 (A) (A) (A) (A) (A) (A) (A) (A) (A) (A) (A) (A)
                 (A) (A) (A) (A) (A) (A) (A) (A) (A) (A) (A) (A)
                 (A) (A) (A) (A) (A) (A) (A) (A) (A) (A) (A) (A)
                 (A) (A) (A) (A) (A) (A) (A) (A) (A) (A) (A) (A)
                 (A) (A) (A) (A) (A) (A) (A) (A) (A) (A) (A) (A)
                 (A) (A) (A) (A) (A) (A) (A) (A) (A) (A) (A) (A)
                 (A) (A) (A) (A) (A) (A) (A) (A) (A) (A) (A) (A)
                 (A) (A) (A) (A) (A) (A) (A) (A) (A) (A) (A) (A)
                 (A) (A) (A) (A) (A) (A) (A) (A) (A) (A) (A) (A)
                 (A) (A) (A) (A) (A) (A) (A) (A) (A) (A) (A) (A)
                 (A) (A) (A) (A) (A) (A) (A) (A) (A) (A) (A) (A)
                 (A) (A) (A) (A) (A) (A) (A)
 The electronic state is 1-A.
 Alpha  occ. eigenvalues --  -19.09856 -14.39269 -14.31757 -10.24029 -10.21670
 Alpha  occ. eigenvalues --  -10.20058  -1.03693  -0.98253  -0.89124  -0.76303
 Alpha  occ. eigenvalues --   -0.63536  -0.61078  -0.58182  -0.50034  -0.45960
 Alpha  occ. eigenvalues --   -0.45593  -0.45336  -0.42705  -0.36864  -0.30664
 Alpha  occ. eigenvalues --   -0.29732  -0.28769  -0.25169
 Alpha virt. eigenvalues --   -0.02450  -0.00181   0.00163   0.00189   0.01930
 Alpha virt. eigenvalues --    0.02720   0.02923   0.03408   0.04482   0.05340
 Alpha virt. eigenvalues --    0.06068   0.07002   0.07117   0.07260   0.07850
 Alpha virt. eigenvalues --    0.08349   0.08770   0.09814   0.10323   0.11924
 Alpha virt. eigenvalues --    0.12640   0.13203   0.13634   0.14558   0.15235
 Alpha virt. eigenvalues --    0.15859   0.16493   0.17474   0.17862   0.18333
 Alpha virt. eigenvalues --    0.19050   0.20071   0.20466   0.21724   0.21819
 Alpha virt. eigenvalues --    0.22742   0.23110   0.23936   0.24402   0.24903
 Alpha virt. eigenvalues --    0.26183   0.26974   0.27021   0.27385   0.28197
 Alpha virt. eigenvalues --    0.29240   0.30343   0.31142   0.31808   0.32297
 Alpha virt. eigenvalues --    0.33566   0.34404   0.35190   0.35684   0.35968
 Alpha virt. eigenvalues --    0.36824   0.37234   0.37937   0.38470   0.39215
 Alpha virt. eigenvalues --    0.39288   0.40442   0.40534   0.41202   0.41700
 Alpha virt. eigenvalues --    0.42075   0.42433   0.42799   0.45476   0.47305
 Alpha virt. eigenvalues --    0.48209   0.48677   0.50476   0.50971   0.52308
 Alpha virt. eigenvalues --    0.53756   0.55515   0.55785   0.58230   0.58821
 Alpha virt. eigenvalues --    0.59023   0.60282   0.61396   0.61766   0.62981
 Alpha virt. eigenvalues --    0.63462   0.64093   0.64929   0.65635   0.66876
 Alpha virt. eigenvalues --    0.67156   0.68802   0.68914   0.70718   0.72047
 Alpha virt. eigenvalues --    0.72924   0.74276   0.75362   0.75941   0.76741
 Alpha virt. eigenvalues --    0.77732   0.78906   0.79225   0.80426   0.80685
 Alpha virt. eigenvalues --    0.81993   0.82929   0.83368   0.85223   0.85765
 Alpha virt. eigenvalues --    0.86115   0.86979   0.87421   0.88839   0.89065
 Alpha virt. eigenvalues --    0.89582   0.90092   0.90927   0.91739   0.92188
 Alpha virt. eigenvalues --    0.93522   0.95154   0.96443   0.96653   0.97786
 Alpha virt. eigenvalues --    1.00400   1.01269   1.01474   1.01761   1.02216
 Alpha virt. eigenvalues --    1.03386   1.04335   1.05466   1.06431   1.06933
 Alpha virt. eigenvalues --    1.08339   1.09715   1.10549   1.12102   1.14243
 Alpha virt. eigenvalues --    1.14381   1.15968   1.16281   1.17739   1.19073
 Alpha virt. eigenvalues --    1.20968   1.23440   1.24150   1.25166   1.25726
 Alpha virt. eigenvalues --    1.28142   1.28978   1.29401   1.31226   1.31690
 Alpha virt. eigenvalues --    1.32336   1.33226   1.34688   1.36224   1.36784
 Alpha virt. eigenvalues --    1.38247   1.39084   1.40138   1.41381   1.43734
 Alpha virt. eigenvalues --    1.45021   1.45805   1.48529   1.50090   1.51182
 Alpha virt. eigenvalues --    1.53267   1.54327   1.55166   1.56930   1.59045
 Alpha virt. eigenvalues --    1.59865   1.61840   1.63364   1.63965   1.68345
 Alpha virt. eigenvalues --    1.70113   1.70461   1.70796   1.74281   1.76043
 Alpha virt. eigenvalues --    1.78604   1.79264   1.81875   1.82775   1.83900
 Alpha virt. eigenvalues --    1.86288   1.87721   1.89031   1.90358   1.92049
 Alpha virt. eigenvalues --    1.92981   1.97745   1.98816   2.00469   2.02225
 Alpha virt. eigenvalues --    2.03720   2.04597   2.06147   2.07683   2.11758
 Alpha virt. eigenvalues --    2.12635   2.13761   2.16396   2.18920   2.20313
 Alpha virt. eigenvalues --    2.21232   2.22258   2.22690   2.24556   2.24940
 Alpha virt. eigenvalues --    2.26292   2.28229   2.30160   2.33200   2.34507
 Alpha virt. eigenvalues --    2.37647   2.38889   2.40416   2.42082   2.46452
 Alpha virt. eigenvalues --    2.48179   2.50015   2.53594   2.54149   2.55725
 Alpha virt. eigenvalues --    2.60829   2.61758   2.65583   2.66125   2.68748
 Alpha virt. eigenvalues --    2.69937   2.73463   2.77248   2.78389   2.79918
 Alpha virt. eigenvalues --    2.81430   2.90751   2.95371   2.98179   3.03268
 Alpha virt. eigenvalues --    3.05359   3.08874   3.09343   3.14627   3.16991
 Alpha virt. eigenvalues --    3.18819   3.20341   3.23593   3.26713   3.28226
 Alpha virt. eigenvalues --    3.31847   3.36299   3.37247   3.39647   3.42114
 Alpha virt. eigenvalues --    3.43330   3.44474   3.44877   3.49296   3.49862
 Alpha virt. eigenvalues --    3.52297   3.54031   3.55886   3.57581   3.60931
 Alpha virt. eigenvalues --    3.64450   3.65948   3.69812   3.72863   3.76910
 Alpha virt. eigenvalues --    3.78717   3.79930   3.81311   3.81392   3.83857
 Alpha virt. eigenvalues --    3.84694   3.85275   3.89491   3.90506   3.93343
 Alpha virt. eigenvalues --    3.95403   3.95891   3.98716   3.99568   4.01834
 Alpha virt. eigenvalues --    4.02421   4.04837   4.06753   4.09117   4.12012
 Alpha virt. eigenvalues --    4.14927   4.15550   4.19110   4.20309   4.22299
 Alpha virt. eigenvalues --    4.23142   4.25348   4.27805   4.29814   4.31282
 Alpha virt. eigenvalues --    4.32787   4.37018   4.38753   4.42993   4.47807
 Alpha virt. eigenvalues --    4.49872   4.51971   4.58004   4.60271   4.61132
 Alpha virt. eigenvalues --    4.62807   4.66105   4.66662   4.68050   4.72216
 Alpha virt. eigenvalues --    4.73240   4.82152   4.83498   4.84389   4.89129
 Alpha virt. eigenvalues --    4.91354   4.95474   4.96833   4.98828   5.00256
 Alpha virt. eigenvalues --    5.01424   5.06199   5.09828   5.13124   5.14895
 Alpha virt. eigenvalues --    5.18714   5.19341   5.20719   5.22000   5.28738
 Alpha virt. eigenvalues --    5.29454   5.34945   5.35728   5.38453   5.41565
 Alpha virt. eigenvalues --    5.42932   5.42992   5.44522   5.46852   5.52957
 Alpha virt. eigenvalues --    5.53392   5.59696   5.64467   5.64965   5.73870
 Alpha virt. eigenvalues --    5.85324   5.87829   5.89069   5.93629   6.02391
 Alpha virt. eigenvalues --    6.07291   6.12541   6.15847   6.20715   6.28863
 Alpha virt. eigenvalues --    6.31999   6.38573   6.41167   6.46087   6.55859
 Alpha virt. eigenvalues --    6.56708   6.63247   6.73071   6.77490   6.83919
 Alpha virt. eigenvalues --    6.91397   6.95753   7.01725   7.08273   7.15820
 Alpha virt. eigenvalues --    7.34340   7.38392   7.52462   7.62515   8.40488
 Alpha virt. eigenvalues --   15.38401  15.77497  15.96908  17.43255  17.67785
 Alpha virt. eigenvalues --   18.15755
          Condensed to atoms (all electrons):
               1          2          3          4          5          6
     1  C    6.666318  -0.130043  -0.280713   0.301155  -0.012801  -0.046339
     2  C   -0.130043   5.960818  -0.271481  -0.006107   0.224752  -0.011753
     3  C   -0.280713  -0.271481   6.500078  -0.024590  -0.021429   0.275057
     4  H    0.301155  -0.006107  -0.024590   0.291444  -0.001596  -0.005072
     5  H   -0.012801   0.224752  -0.021429  -0.001596   0.342090   0.001110
     6  H   -0.046339  -0.011753   0.275057  -0.005072   0.001110   0.317503
     7  N   -0.009478   0.464036   0.253563   0.016859  -0.052726  -0.051600
     8  H    0.008518  -0.049595  -0.101175  -0.001055   0.013775   0.019887
     9  N   -0.193694   0.224407   0.005045  -0.046903  -0.024383   0.028880
    10  O    0.022416  -0.022019  -0.013995   0.000512   0.025976  -0.000263
    11  H   -0.001725   0.002005   0.000680  -0.000217  -0.001603   0.000060
    12  H   -0.016920   0.010644   0.007006  -0.001737  -0.015480   0.000481
               7          8          9         10         11         12
     1  C   -0.009478   0.008518  -0.193694   0.022416  -0.001725  -0.016920
     2  C    0.464036  -0.049595   0.224407  -0.022019   0.002005   0.010644
     3  C    0.253563  -0.101175   0.005045  -0.013995   0.000680   0.007006
     4  H    0.016859  -0.001055  -0.046903   0.000512  -0.000217  -0.001737
     5  H   -0.052726   0.013775  -0.024383   0.025976  -0.001603  -0.015480
     6  H   -0.051600   0.019887   0.028880  -0.000263   0.000060   0.000481
     7  N    6.383547   0.416228  -0.347806  -0.005632   0.000219  -0.001692
     8  H    0.416228   0.638058   0.002679  -0.000475   0.000032   0.000303
     9  N   -0.347806   0.002679   7.718103  -0.026081   0.002818   0.036402
    10  O   -0.005632  -0.000475  -0.026081   8.110982   0.236911   0.134946
    11  H    0.000219   0.000032   0.002818   0.236911   0.584478   0.036374
    12  H   -0.001692   0.000303   0.036402   0.134946   0.036374   0.535470
 Mulliken charges:
               1
     1  C   -0.306693
     2  C   -0.395665
     3  C   -0.328046
     4  H    0.477308
     5  H    0.522315
     6  H    0.472050
     7  N   -0.065517
     8  H    0.052821
     9  N   -0.379465
    10  O   -0.463279
    11  H    0.139968
    12  H    0.274203
 Sum of Mulliken charges =   0.00000
 Mulliken charges with hydrogens summed into heavy atoms:
               1
     1  C    0.170615
     2  C    0.126651
     3  C    0.144004
     7  N   -0.012696
     9  N   -0.379465
    10  O   -0.049108
 Electronic spatial extent (au):  <R**2>=            717.8956
 Charge=              0.0000 electrons
 Dipole moment (field-independent basis, Debye):
    X=              4.3097    Y=             -1.7593    Z=              1.3118  Tot=              4.8363
 Quadrupole moment (field-independent basis, Debye-Ang):
   XX=            -38.0519   YY=            -30.4433   ZZ=            -37.8442
   XY=             -2.9545   XZ=             -5.1388   YZ=              0.1041
 Traceless Quadrupole moment (field-independent basis, Debye-Ang):
   XX=             -2.6054   YY=              5.0031   ZZ=             -2.3977
   XY=             -2.9545   XZ=             -5.1388   YZ=              0.1041
 Octapole moment (field-independent basis, Debye-Ang**2):
  XXX=             29.8124  YYY=             -8.7638  ZZZ=              1.2943  XYY=              6.9131
  XXY=             -2.5770  XXZ=             18.9077  XZZ=             -9.1263  YZZ=             -1.3978
  YYZ=              0.0195  XYZ=             -0.4904
 Hexadecapole moment (field-independent basis, Debye-Ang**3):
 XXXX=           -709.2979 YYYY=           -147.8778 ZZZZ=            -43.2489 XXXY=            -23.1580
 XXXZ=            -68.8044 YYYX=            -13.6628 YYYZ=              0.0212 ZZZX=             -5.5429
 ZZZY=              0.2445 XXYY=           -135.2300 XXZZ=           -117.4802 YYZZ=            -41.1859
 XXYZ=              1.7631 YYXZ=             -0.6336 ZZXY=             -3.1922
 N-N= 2.241131739982D+02 E-N=-1.155403293878D+03  KE= 3.009813610867D+02
 Calling FoFJK, ICntrl=      2127 FMM=F ISym2X=0 I1Cent= 0 IOpClX= 0 NMat=1 NMatS=1 NMatT=0.
 ***** Axes restored to original set *****
 -------------------------------------------------------------------
 Center     Atomic                   Forces (Hartrees/Bohr)
 Number     Number              X              Y              Z
 -------------------------------------------------------------------
      1        6           0.000534166    0.001223416    0.000039190
      2        6          -0.001685185   -0.000285093   -0.000092765
      3        6           0.000415566    0.001441166   -0.000001296
      4        1           0.000184813    0.001709049   -0.000013945
      5        1          -0.000790576   -0.001586310   -0.000025585
      6        1           0.001507552    0.000258877    0.000001689
      7        7           0.000352932   -0.000573016    0.000017024
      8        1           0.000874084   -0.001912521    0.000010208
      9        7          -0.000354581   -0.000980901   -0.000377033
     10        8          -0.002759098   -0.001830368   -0.002169593
     11        1          -0.002799040    0.000228273    0.003140635
     12        1           0.004519366    0.002307427   -0.000528530
 -------------------------------------------------------------------
 Cartesian Forces:  Max     0.004519366 RMS     0.001499571

 GradGradGradGradGradGradGradGradGradGradGradGradGradGradGradGradGradGrad
 Berny optimization.
 FormGI is forming the generalized inverse of G from B-inverse, IUseBI=4.
 GSVD:  received Info=                   1 from GESDD.
 Internal  Forces:  Max     0.005659426 RMS     0.001454720
 Search for a local minimum.
 Step number   1 out of a maximum of   62
 All quantities printed in internal units (Hartrees-Bohrs-Radians)
 Mixed Optimization -- RFO/linear search
 Second derivative matrix not updated -- first step.
 ITU=  0
     Eigenvalues ---    0.00230   0.01430   0.01716   0.02149   0.02234
     Eigenvalues ---    0.02251   0.02386   0.02473   0.02599   0.04619
     Eigenvalues ---    0.15795   0.15999   0.16000   0.16000   0.16000
     Eigenvalues ---    0.16000   0.21956   0.22000   0.25000   0.36673
     Eigenvalues ---    0.36776   0.36935   0.44093   0.46079   0.47285
     Eigenvalues ---    0.50548   0.53051   0.53445   0.56052   0.60960
 RFO step:  Lambda=-4.42860384D-04 EMin= 2.30000000D-03
 Linear search not attempted -- first point.
 Iteration  1 RMS(Cart)=  0.04255067 RMS(Int)=  0.00251813
 Iteration  2 RMS(Cart)=  0.00224667 RMS(Int)=  0.00000548
 Iteration  3 RMS(Cart)=  0.00000844 RMS(Int)=  0.00000227
 Iteration  4 RMS(Cart)=  0.00000000 RMS(Int)=  0.00000227
 Variable       Old X    -DE/DX   Delta X   Delta X   Delta X     New X
                                 (Linear)    (Quad)   (Total)
    R1        2.58034   0.00091   0.00000   0.00156   0.00156   2.58190
    R2        2.02886   0.00172   0.00000   0.00467   0.00467   2.03352
    R3        2.59477   0.00215   0.00000   0.00408   0.00408   2.59885
    R4        2.03042   0.00169   0.00000   0.00460   0.00460   2.03502
    R5        2.56062   0.00255   0.00000   0.00493   0.00493   2.56555
    R6        2.48104   0.00192   0.00000   0.00309   0.00309   2.48413
    R7        2.02644   0.00152   0.00000   0.00412   0.00412   2.03056
    R8        2.59686   0.00277   0.00000   0.00557   0.00557   2.60243
    R9        1.89409   0.00210   0.00000   0.00444   0.00444   1.89853
   R10        3.70034   0.00097   0.00000   0.02078   0.02078   3.72112
   R11        1.80909   0.00387   0.00000   0.00690   0.00690   1.81599
   R12        1.83241   0.00566   0.00000   0.01058   0.01058   1.84299
    A1        2.23579   0.00000   0.00000   0.00033   0.00033   2.23612
    A2        1.92370  -0.00007   0.00000  -0.00112  -0.00112   1.92258
    A3        2.12369   0.00007   0.00000   0.00079   0.00079   2.12449
    A4        2.16144  -0.00011   0.00000  -0.00174  -0.00174   2.15969
    A5        2.18112   0.00098   0.00000   0.00504   0.00504   2.18616
    A6        1.94061  -0.00087   0.00000  -0.00330  -0.00330   1.93731
    A7        2.31095  -0.00019   0.00000  -0.00091  -0.00091   2.31004
    A8        1.83660   0.00009   0.00000   0.00008   0.00008   1.83668
    A9        2.13564   0.00009   0.00000   0.00083   0.00083   2.13647
   A10        1.87765   0.00014   0.00000   0.00119   0.00119   1.87884
   A11        2.20137  -0.00011   0.00000  -0.00088  -0.00088   2.20049
   A12        2.20415  -0.00002   0.00000  -0.00031  -0.00031   2.20384
   A13        1.84621   0.00071   0.00000   0.00315   0.00315   1.84936
   A14        2.72560  -0.00261   0.00000  -0.01586  -0.01586   2.70974
   A15        1.70680   0.00187   0.00000   0.01250   0.01250   1.71931
   A16        1.81368   0.00281   0.00000   0.01750   0.01750   1.83118
   A17        2.67399   0.00208   0.00000   0.00830   0.00830   2.68229
    D1        0.00091  -0.00003   0.00000  -0.00011  -0.00011   0.00080
    D2       -3.14050  -0.00003   0.00000   0.00002   0.00002  -3.14048
    D3       -3.14121   0.00003   0.00000   0.00045   0.00045  -3.14076
    D4        0.00057   0.00003   0.00000   0.00058   0.00058   0.00115
    D5       -0.00084  -0.00007   0.00000  -0.00129  -0.00129  -0.00213
    D6       -2.98971  -0.00012   0.00000  -0.00062  -0.00063  -2.99034
    D7        3.14027  -0.00002   0.00000  -0.00077  -0.00077   3.13950
    D8        0.15140  -0.00006   0.00000  -0.00011  -0.00011   0.15129
    D9        3.13447  -0.00010   0.00000  -0.00092  -0.00092   3.13355
   D10       -0.00169  -0.00005   0.00000  -0.00045  -0.00045  -0.00215
   D11       -0.00044  -0.00008   0.00000  -0.00118  -0.00118  -0.00162
   D12       -3.13661  -0.00002   0.00000  -0.00071  -0.00071  -3.13732
   D13       -3.13405   0.00012   0.00000   0.00127   0.00127  -3.13277
   D14       -0.05454  -0.00024   0.00000  -0.00134  -0.00134  -0.05588
   D15        0.00078   0.00009   0.00000   0.00150   0.00150   0.00228
   D16        3.08029  -0.00027   0.00000  -0.00110  -0.00111   3.07917
   D17       -0.00009   0.00003   0.00000   0.00033   0.00033   0.00024
   D18        3.13606  -0.00002   0.00000  -0.00014  -0.00014   3.13592
   D19       -3.14152   0.00003   0.00000   0.00044   0.00044  -3.14108
   D20       -0.00537  -0.00003   0.00000  -0.00002  -0.00003  -0.00539
   D21       -3.07785   0.00027   0.00000   0.09039   0.09038  -2.98746
   D22        0.21204   0.00023   0.00000   0.09115   0.09116   0.30320
   D23        1.66202   0.00103   0.00000   0.06984   0.06984   1.73186
         Item               Value     Threshold  Converged?
 Maximum Force            0.005659     0.000450     NO 
 RMS     Force            0.001455     0.000300     NO 
 Maximum Displacement     0.209855     0.001800     NO 
 RMS     Displacement     0.043076     0.001200     NO 
 Predicted change in Energy=-2.265164D-04
 GradGradGradGradGradGradGradGradGradGradGradGradGradGradGradGradGradGrad

                          Input orientation:                          
 ---------------------------------------------------------------------
 Center     Atomic      Atomic             Coordinates (Angstroms)
 Number     Number       Type             X           Y           Z
 ---------------------------------------------------------------------
      1          6           0        0.961976    1.149971    0.005948
      2          6           0        0.005092   -0.773001   -0.005200
      3          6           0        1.971814    0.229667    0.005159
      4          1           0        1.041233    2.223135    0.009693
      5          1           0       -0.732080   -1.557925   -0.017934
      6          1           0        3.041740    0.328923    0.008525
      7          7           0        1.344253   -0.996161   -0.001804
      8          1           0        1.794404   -1.894301   -0.008772
      9          7           0       -0.257881    0.514958    0.001147
     10          8           0       -3.077630   -0.047581   -0.062206
     11          1           0       -3.436209    0.217646    0.789004
     12          1           0       -2.220110    0.412326   -0.127736
 ---------------------------------------------------------------------
                    Distance matrix (angstroms):
                    1          2          3          4          5
     1  C    0.000000
     2  C    2.147924   0.000000
     3  C    1.366284   2.207589   0.000000
     4  H    1.076093   3.170275   2.199981   0.000000
     5  H    3.194229   1.076889   3.241460   4.176341   0.000000
     6  H    2.235966   3.230427   1.074526   2.755008   4.219314
     7  N    2.179926   1.357632   1.377147   3.233546   2.151045
     8  H    3.156065   2.111626   2.131410   4.185796   2.548794
     9  N    1.375251   1.314547   2.247876   2.146076   2.126517
    10  O    4.213929   3.167437   5.057498   4.703866   2.790109
    11  H    4.563600   3.668064   5.464547   4.967576   3.334084
    12  H    3.269199   2.524191   4.198005   3.732865   2.471473
                    6          7          8          9         10
     6  H    0.000000
     7  N    2.153466   0.000000
     8  H    2.549289   1.004660   0.000000
     9  N    3.304869   2.202344   3.164886   0.000000
    10  O    6.131349   4.522886   5.210561   2.876013   0.000000
    11  H    6.525745   4.995150   5.697023   3.287991   0.960980
    12  H    5.264275   3.834629   4.631523   1.969134   0.975269
                   11         12
    11  H    0.000000
    12  H    1.535320   0.000000
 Stoichiometry    C3H6N2O
 Framework group  C1[X(C3H6N2O)]
 Deg. of freedom    30
 Full point group                 C1      NOp   1
 Largest Abelian subgroup         C1      NOp   1
 Largest concise Abelian subgroup C1      NOp   1
                         Standard orientation:                         
 ---------------------------------------------------------------------
 Center     Atomic      Atomic             Coordinates (Angstroms)
 Number     Number       Type             X           Y           Z
 ---------------------------------------------------------------------
      1          6           0        0.955595    1.161583   -0.004126
      2          6           0        0.005515   -0.764791   -0.001891
      3          6           0        1.968635    0.244903    0.009257
      4          1           0        1.031077    2.235008   -0.010255
      5          1           0       -0.728828   -1.552412   -0.010998
      6          1           0        3.038174    0.347982    0.017334
      7          7           0        1.345411   -0.983155    0.010732
      8          1           0        1.798731   -1.879718    0.014761
      9          7           0       -0.261991    0.522229   -0.009292
     10          8           0       -3.079378   -0.050893   -0.082168
     11          1           0       -3.443411    0.221196    0.764549
     12          1           0       -2.223135    0.411405   -0.147566
 ---------------------------------------------------------------------
 Rotational constants (GHZ):      9.4656792      1.8909327      1.5830027
 Standard basis: Aug-CC-pVTZ (5D, 7F)
 There are   480 symmetry adapted cartesian basis functions of A   symmetry.
 There are   414 symmetry adapted basis functions of A   symmetry.
   414 basis functions,   594 primitive gaussians,   480 cartesian basis functions
    23 alpha electrons       23 beta electrons
       nuclear repulsion energy       223.3593125791 Hartrees.
 NAtoms=   12 NActive=   12 NUniq=   12 SFac= 1.00D+00 NAtFMM=   60 NAOKFM=F Big=F
 Integral buffers will be    131072 words long.
 Raffenetti 2 integral format.
 Two-electron integral symmetry is turned on.
 Nuclear repulsion after empirical dispersion term =      223.3541522969 Hartrees.
 One-electron integrals computed using PRISM.
 NBasis=   414 RedAO= T EigKep=  3.93D-06  NBF=   414
 NBsUse=   414 1.00D-06 EigRej= -1.00D+00 NBFU=   414
 Initial guess from the checkpoint file:  "288-32-4.chk"
 B after Tr=     0.000000    0.000000    0.000000
         Rot=    0.999990    0.003215    0.000275   -0.002941 Ang=   0.50 deg.
 ExpMin= 2.53D-02 ExpMax= 1.53D+04 ExpMxC= 5.22D+02 IAcc=3 IRadAn=         5 AccDes= 0.00D+00
 Harris functional with IExCor=  402 and IRadAn=       5 diagonalized for initial guess.
 HarFok:  IExCor=  402 AccDes= 0.00D+00 IRadAn=         5 IDoV= 1 UseB2=F ITyADJ=14
 ICtDFT=  3500011 ScaDFX=  1.000000  1.000000  1.000000  1.000000
 FoFCou: FMM=F IPFlag=           0 FMFlag=      100000 FMFlg1=           0
         NFxFlg=           0 DoJE=T BraDBF=F KetDBF=T FulRan=T
         wScrn=  0.000000 ICntrl=     500 IOpCl=  0 I1Cent=   200000004 NGrid=           0
         NMat0=    1 NMatS0=      1 NMatT0=    0 NMatD0=    1 NMtDS0=    0 NMtDT0=    0
 Petite list used in FoFCou.
 Requested convergence on RMS density matrix=1.00D-08 within 128 cycles.
 Requested convergence on MAX density matrix=1.00D-06.
 Requested convergence on             energy=1.00D-06.
 No special actions if energy rises.
 SCF Done:  E(RB3LYP) =  -302.786456909     A.U. after   10 cycles
            NFock= 10  Conv=0.31D-08     -V/T= 2.0062
 Calling FoFJK, ICntrl=      2127 FMM=F ISym2X=0 I1Cent= 0 IOpClX= 0 NMat=1 NMatS=1 NMatT=0.
 ***** Axes restored to original set *****
 -------------------------------------------------------------------
 Center     Atomic                   Forces (Hartrees/Bohr)
 Number     Number              X              Y              Z
 -------------------------------------------------------------------
      1        6          -0.000249762    0.000202980    0.000106506
      2        6           0.000248115    0.001489628    0.000047993
      3        6          -0.000257712    0.000200738    0.000011863
      4        1          -0.000092145   -0.000085832    0.000003389
      5        1           0.000175777   -0.000061239    0.000212820
      6        1          -0.000045888   -0.000077162    0.000024826
      7        7           0.000547229   -0.000543649   -0.000134803
      8        1           0.000055376    0.000018923    0.000018392
      9        7          -0.000164573   -0.001754082   -0.000897429
     10        8          -0.000017892    0.000382215   -0.000862486
     11        1           0.000132892    0.000190587   -0.000471873
     12        1          -0.000331418    0.000036894    0.001940803
 -------------------------------------------------------------------
 Cartesian Forces:  Max     0.001940803 RMS     0.000581669

 GradGradGradGradGradGradGradGradGradGradGradGradGradGradGradGradGradGrad
 Berny optimization.
 Using GEDIIS/GDIIS optimizer.
 FormGI is forming the generalized inverse of G from B-inverse, IUseBI=4.
 GSVD:  received Info=                   1 from GESDD.
 Internal  Forces:  Max     0.001745732 RMS     0.000451754
 Search for a local minimum.
 Step number   2 out of a maximum of   62
 All quantities printed in internal units (Hartrees-Bohrs-Radians)
 Mixed Optimization -- En-DIIS/RFO-DIIS
 Update second derivatives using D2CorX and points    1    2
 DE= -2.42D-04 DEPred=-2.27D-04 R= 1.07D+00
 TightC=F SS=  1.41D+00  RLast= 1.52D-01 DXNew= 5.0454D-01 4.5461D-01
 Trust test= 1.07D+00 RLast= 1.52D-01 DXMaxT set to 4.55D-01
 ITU=  1  0
 Use linear search instead of GDIIS.
     Eigenvalues ---    0.00281   0.01174   0.01733   0.02149   0.02234
     Eigenvalues ---    0.02250   0.02386   0.02473   0.02606   0.04544
     Eigenvalues ---    0.12371   0.15995   0.16000   0.16000   0.16000
     Eigenvalues ---    0.16824   0.21988   0.22451   0.24114   0.36710
     Eigenvalues ---    0.36866   0.37232   0.44008   0.46142   0.47370
     Eigenvalues ---    0.50811   0.52912   0.54705   0.57941   0.63640
 RFO step:  Lambda=-1.21148467D-04 EMin= 2.81168410D-03
 Quartic linear search produced a step of  0.14017.
 Iteration  1 RMS(Cart)=  0.01700213 RMS(Int)=  0.00023437
 Iteration  2 RMS(Cart)=  0.00056491 RMS(Int)=  0.00002616
 Iteration  3 RMS(Cart)=  0.00000034 RMS(Int)=  0.00002615
 Variable       Old X    -DE/DX   Delta X   Delta X   Delta X     New X
                                 (Linear)    (Quad)   (Total)
    R1        2.58190  -0.00013   0.00022  -0.00003   0.00019   2.58209
    R2        2.03352  -0.00009   0.00065   0.00042   0.00107   2.03459
    R3        2.59885  -0.00020   0.00057   0.00006   0.00063   2.59948
    R4        2.03502  -0.00008   0.00064   0.00045   0.00110   2.03612
    R5        2.56555   0.00041   0.00069   0.00167   0.00237   2.56792
    R6        2.48413  -0.00070   0.00043  -0.00084  -0.00041   2.48372
    R7        2.03056  -0.00005   0.00058   0.00046   0.00104   2.03160
    R8        2.60243  -0.00016   0.00078   0.00060   0.00138   2.60381
    R9        1.89853   0.00001   0.00062   0.00069   0.00132   1.89985
   R10        3.72112   0.00014   0.00291   0.00676   0.00967   3.73079
   R11        1.81599  -0.00042   0.00097   0.00020   0.00116   1.81715
   R12        1.84299  -0.00046   0.00148   0.00061   0.00210   1.84509
    A1        2.23612  -0.00001   0.00005   0.00028   0.00033   2.23645
    A2        1.92258   0.00019  -0.00016   0.00059   0.00043   1.92301
    A3        2.12449  -0.00018   0.00011  -0.00087  -0.00076   2.12373
    A4        2.15969  -0.00034  -0.00024  -0.00233  -0.00257   2.15712
    A5        2.18616   0.00000   0.00071   0.00116   0.00187   2.18803
    A6        1.93731   0.00034  -0.00046   0.00118   0.00071   1.93802
    A7        2.31004   0.00007  -0.00013   0.00025   0.00012   2.31016
    A8        1.83668   0.00001   0.00001   0.00031   0.00033   1.83700
    A9        2.13647  -0.00008   0.00012  -0.00056  -0.00045   2.13602
   A10        1.87884  -0.00037   0.00017  -0.00142  -0.00125   1.87759
   A11        2.20049   0.00024  -0.00012   0.00106   0.00093   2.20142
   A12        2.20384   0.00013  -0.00004   0.00038   0.00033   2.20417
   A13        1.84936  -0.00017   0.00044  -0.00065  -0.00021   1.84915
   A14        2.70974  -0.00158  -0.00222  -0.01358  -0.01582   2.69392
   A15        1.71931   0.00175   0.00175   0.01476   0.01653   1.73583
   A16        1.83118  -0.00025   0.00245   0.00088   0.00334   1.83452
   A17        2.68229   0.00167   0.00116   0.00888   0.01004   2.69233
    D1        0.00080  -0.00001  -0.00002   0.00012   0.00012   0.00091
    D2       -3.14048  -0.00006   0.00000  -0.00226  -0.00224   3.14046
    D3       -3.14076   0.00002   0.00006   0.00039   0.00044  -3.14032
    D4        0.00115  -0.00003   0.00008  -0.00200  -0.00192  -0.00077
    D5       -0.00213   0.00005  -0.00018   0.00375   0.00358   0.00146
    D6       -2.99034  -0.00017  -0.00009  -0.00723  -0.00727  -2.99761
    D7        3.13950   0.00007  -0.00011   0.00399   0.00388  -3.13980
    D8        0.15129  -0.00014  -0.00002  -0.00699  -0.00697   0.14432
    D9        3.13355   0.00005  -0.00013   0.00473   0.00463   3.13819
   D10       -0.00215   0.00002  -0.00006   0.00149   0.00145  -0.00070
   D11       -0.00162   0.00003  -0.00016   0.00290   0.00276   0.00114
   D12       -3.13732  -0.00001  -0.00010  -0.00033  -0.00042  -3.13774
   D13       -3.13277  -0.00007   0.00018  -0.00589  -0.00576  -3.13853
   D14       -0.05588  -0.00022  -0.00019  -0.00334  -0.00343  -0.05931
   D15        0.00228  -0.00004   0.00021  -0.00405  -0.00387  -0.00158
   D16        3.07917  -0.00019  -0.00016  -0.00150  -0.00154   3.07764
   D17        0.00024   0.00000   0.00005  -0.00046  -0.00043  -0.00019
   D18        3.13592   0.00004  -0.00002   0.00278   0.00277   3.13869
   D19       -3.14108  -0.00004   0.00006  -0.00255  -0.00250   3.13961
   D20       -0.00539   0.00000   0.00000   0.00069   0.00070  -0.00470
   D21       -2.98746  -0.00010   0.01267  -0.06099  -0.04834  -3.03580
   D22        0.30320  -0.00026   0.01278  -0.07130  -0.05851   0.24469
   D23        1.73186   0.00052   0.00979   0.05243   0.06222   1.79408
         Item               Value     Threshold  Converged?
 Maximum Force            0.001746     0.000450     NO 
 RMS     Force            0.000452     0.000300     NO 
 Maximum Displacement     0.061772     0.001800     NO 
 RMS     Displacement     0.017372     0.001200     NO 
 Predicted change in Energy=-6.597212D-05
 GradGradGradGradGradGradGradGradGradGradGradGradGradGradGradGradGradGrad

                          Input orientation:                          
 ---------------------------------------------------------------------
 Center     Atomic      Atomic             Coordinates (Angstroms)
 Number     Number       Type             X           Y           Z
 ---------------------------------------------------------------------
      1          6           0        0.959903    1.145033    0.008177
      2          6           0        0.014349   -0.783467   -0.000588
      3          6           0        1.975634    0.231129   -0.000195
      4          1           0        1.032031    2.219251    0.015430
      5          1           0       -0.716957   -1.574733   -0.006324
      6          1           0        3.045472    0.337119   -0.000924
      7          7           0        1.355937   -0.999518   -0.005901
      8          1           0        1.812078   -1.895394   -0.014951
      9          7           0       -0.256469    0.502637    0.006703
     10          8           0       -3.091055   -0.029415   -0.068738
     11          1           0       -3.468898    0.234849    0.775102
     12          1           0       -2.225424    0.420170   -0.111968
 ---------------------------------------------------------------------
                    Distance matrix (angstroms):
                    1          2          3          4          5
     1  C    0.000000
     2  C    2.147851   0.000000
     3  C    1.366382   2.208177   0.000000
     4  H    1.076661   3.170528   2.200741   0.000000
     5  H    3.195184   1.077471   3.242102   4.177768   0.000000
     6  H    2.236606   3.231628   1.075075   2.756199   4.220318
     7  N    2.180858   1.358884   1.377879   3.235096   2.151223
     8  H    3.157679   2.113863   2.132855   4.188043   2.549297
     9  N    1.375585   1.314329   2.248566   2.146409   2.127836
    10  O    4.218472   3.196369   5.073847   4.697172   2.833416
    11  H    4.585944   3.711020   5.499457   4.977279   3.385025
    12  H    3.268970   2.545138   4.206794   3.723431   2.503252
                    6          7          8          9         10
     6  H    0.000000
     7  N    2.154333   0.000000
     8  H    2.550602   1.005356   0.000000
     9  N    3.306096   2.203743   3.167003   0.000000
    10  O    6.147838   4.552009   5.246474   2.885074   0.000000
    11  H    6.561226   5.041097   5.748984   3.313887   0.961596
    12  H    5.272720   3.853947   4.655391   1.974251   0.976378
                   11         12
    11  H    0.000000
    12  H    1.538657   0.000000
 Stoichiometry    C3H6N2O
 Framework group  C1[X(C3H6N2O)]
 Deg. of freedom    30
 Full point group                 C1      NOp   1
 Largest Abelian subgroup         C1      NOp   1
 Largest concise Abelian subgroup C1      NOp   1
                         Standard orientation:                         
 ---------------------------------------------------------------------
 Center     Atomic      Atomic             Coordinates (Angstroms)
 Number     Number       Type             X           Y           Z
 ---------------------------------------------------------------------
      1          6           0        0.945560    1.163262   -0.002964
      2          6           0        0.018655   -0.774276    0.004535
      3          6           0        1.970063    0.259190    0.003835
      4          1           0        1.007315    2.238143   -0.007087
      5          1           0       -0.704968   -1.572594    0.003721
      6          1           0        3.038822    0.375509    0.007401
      7          7           0        1.362268   -0.977384    0.008424
      8          1           0        1.827045   -1.868851    0.011494
      9          7           0       -0.264554    0.509152   -0.003615
     10          8           0       -3.093461   -0.051085   -0.087686
     11          1           0       -3.478213    0.218680    0.751277
     12          1           0       -2.231980    0.406355   -0.131415
 ---------------------------------------------------------------------
 Rotational constants (GHZ):      9.4658096      1.8756014      1.5721144
 Standard basis: Aug-CC-pVTZ (5D, 7F)
 There are   480 symmetry adapted cartesian basis functions of A   symmetry.
 There are   414 symmetry adapted basis functions of A   symmetry.
   414 basis functions,   594 primitive gaussians,   480 cartesian basis functions
    23 alpha electrons       23 beta electrons
       nuclear repulsion energy       223.0316196955 Hartrees.
 NAtoms=   12 NActive=   12 NUniq=   12 SFac= 1.00D+00 NAtFMM=   60 NAOKFM=F Big=F
 Integral buffers will be    131072 words long.
 Raffenetti 2 integral format.
 Two-electron integral symmetry is turned on.
 Nuclear repulsion after empirical dispersion term =      223.0265030688 Hartrees.
 One-electron integrals computed using PRISM.
 NBasis=   414 RedAO= T EigKep=  3.92D-06  NBF=   414
 NBsUse=   414 1.00D-06 EigRej= -1.00D+00 NBFU=   414
 Initial guess from the checkpoint file:  "288-32-4.chk"
 B after Tr=     0.000000    0.000000    0.000000
         Rot=    0.999998    0.000027    0.000090   -0.002220 Ang=   0.25 deg.
 ExpMin= 2.53D-02 ExpMax= 1.53D+04 ExpMxC= 5.22D+02 IAcc=3 IRadAn=         5 AccDes= 0.00D+00
 Harris functional with IExCor=  402 and IRadAn=       5 diagonalized for initial guess.
 HarFok:  IExCor=  402 AccDes= 0.00D+00 IRadAn=         5 IDoV= 1 UseB2=F ITyADJ=14
 ICtDFT=  3500011 ScaDFX=  1.000000  1.000000  1.000000  1.000000
 FoFCou: FMM=F IPFlag=           0 FMFlag=      100000 FMFlg1=           0
         NFxFlg=           0 DoJE=T BraDBF=F KetDBF=T FulRan=T
         wScrn=  0.000000 ICntrl=     500 IOpCl=  0 I1Cent=   200000004 NGrid=           0
         NMat0=    1 NMatS0=      1 NMatT0=    0 NMatD0=    1 NMtDS0=    0 NMtDT0=    0
 Petite list used in FoFCou.
 Requested convergence on RMS density matrix=1.00D-08 within 128 cycles.
 Requested convergence on MAX density matrix=1.00D-06.
 Requested convergence on             energy=1.00D-06.
 No special actions if energy rises.
 SCF Done:  E(RB3LYP) =  -302.786564462     A.U. after    9 cycles
            NFock=  9  Conv=0.48D-08     -V/T= 2.0063
 Calling FoFJK, ICntrl=      2127 FMM=F ISym2X=0 I1Cent= 0 IOpClX= 0 NMat=1 NMatS=1 NMatT=0.
 ***** Axes restored to original set *****
 -------------------------------------------------------------------
 Center     Atomic                   Forces (Hartrees/Bohr)
 Number     Number              X              Y              Z
 -------------------------------------------------------------------
      1        6          -0.000277749    0.000412604   -0.000170483
      2        6           0.000632147    0.000813798   -0.000220880
      3        6          -0.000187414   -0.000185626    0.000152517
      4        1          -0.000056616   -0.000492114   -0.000120664
      5        1           0.000308252    0.000365073   -0.000019665
      6        1          -0.000437676   -0.000086709   -0.000022706
      7        7           0.000078151   -0.000039194    0.000077458
      8        1          -0.000278887    0.000584185    0.000020873
      9        7          -0.000002768   -0.001833712   -0.000233370
     10        8           0.000706892    0.000922847   -0.000309151
     11        1           0.000579287    0.000113779   -0.001016445
     12        1          -0.001063617   -0.000574931    0.001862515
 -------------------------------------------------------------------
 Cartesian Forces:  Max     0.001862515 RMS     0.000618638

 GradGradGradGradGradGradGradGradGradGradGradGradGradGradGradGradGradGrad
 Berny optimization.
 Using GEDIIS/GDIIS optimizer.
 FormGI is forming the generalized inverse of G from B-inverse, IUseBI=4.
 Internal  Forces:  Max     0.001677173 RMS     0.000512081
 Search for a local minimum.
 Step number   3 out of a maximum of   62
 All quantities printed in internal units (Hartrees-Bohrs-Radians)
 Mixed Optimization -- En-DIIS/RFO-DIIS
 Swapping is turned off.
 Update second derivatives using D2CorX and points    1    2    3
 DE= -1.08D-04 DEPred=-6.60D-05 R= 1.63D+00
 TightC=F SS=  1.41D+00  RLast= 1.03D-01 DXNew= 7.6456D-01 3.0944D-01
 Trust test= 1.63D+00 RLast= 1.03D-01 DXMaxT set to 4.55D-01
 ITU=  1  1  0
     Eigenvalues ---    0.00210   0.00548   0.01786   0.02149   0.02244
     Eigenvalues ---    0.02285   0.02389   0.02501   0.02791   0.04946
     Eigenvalues ---    0.08704   0.16000   0.16000   0.16000   0.16054
     Eigenvalues ---    0.17059   0.21990   0.22610   0.23382   0.36715
     Eigenvalues ---    0.36871   0.37876   0.44222   0.46140   0.47755
     Eigenvalues ---    0.50868   0.53217   0.55413   0.59949   0.79411
 En-DIIS/RFO-DIIS IScMMF=        0 using points:     3    2
 RFO step:  Lambda=-4.03242983D-05.
 DidBck=F Rises=F RFO-DIIS coefs:    2.92000   -1.92000
 Iteration  1 RMS(Cart)=  0.05606378 RMS(Int)=  0.00641120
 Iteration  2 RMS(Cart)=  0.01207268 RMS(Int)=  0.00028353
 Iteration  3 RMS(Cart)=  0.00021873 RMS(Int)=  0.00014214
 Iteration  4 RMS(Cart)=  0.00000002 RMS(Int)=  0.00014214
 Variable       Old X    -DE/DX   Delta X   Delta X   Delta X     New X
                                 (Linear)    (Quad)   (Total)
    R1        2.58209  -0.00045   0.00036  -0.00122  -0.00086   2.58122
    R2        2.03459  -0.00050   0.00206  -0.00103   0.00102   2.03562
    R3        2.59948  -0.00046   0.00121  -0.00007   0.00113   2.60061
    R4        2.03612  -0.00048   0.00211  -0.00096   0.00115   2.03728
    R5        2.56792  -0.00050   0.00454  -0.00031   0.00424   2.57216
    R6        2.48372  -0.00102  -0.00079  -0.00235  -0.00315   2.48057
    R7        2.03160  -0.00044   0.00199  -0.00098   0.00101   2.03261
    R8        2.60381  -0.00067   0.00265  -0.00038   0.00229   2.60611
    R9        1.89985  -0.00065   0.00253  -0.00134   0.00119   1.90104
   R10        3.73079  -0.00027   0.01857  -0.00619   0.01238   3.74317
   R11        1.81715  -0.00109   0.00223  -0.00123   0.00100   1.81816
   R12        1.84509  -0.00168   0.00402  -0.00244   0.00158   1.84667
    A1        2.23645   0.00004   0.00063   0.00046   0.00111   2.23755
    A2        1.92301  -0.00003   0.00082  -0.00085  -0.00007   1.92294
    A3        2.12373  -0.00001  -0.00146   0.00040  -0.00105   2.12268
    A4        2.15712  -0.00006  -0.00494  -0.00045  -0.00540   2.15172
    A5        2.18803  -0.00011   0.00359   0.00155   0.00513   2.19316
    A6        1.93802   0.00017   0.00136  -0.00107   0.00025   1.93827
    A7        2.31016   0.00007   0.00023   0.00013   0.00036   2.31051
    A8        1.83700  -0.00006   0.00063  -0.00010   0.00052   1.83752
    A9        2.13602  -0.00002  -0.00086  -0.00002  -0.00088   2.13515
   A10        1.87759  -0.00006  -0.00240   0.00057  -0.00183   1.87576
   A11        2.20142   0.00004   0.00179  -0.00034   0.00145   2.20287
   A12        2.20417   0.00001   0.00064  -0.00025   0.00038   2.20455
   A13        1.84915  -0.00003  -0.00041   0.00148   0.00109   1.85024
   A14        2.69392  -0.00132  -0.03037  -0.02740  -0.05783   2.63609
   A15        1.73583   0.00134   0.03173   0.02510   0.05692   1.79276
   A16        1.83452  -0.00062   0.00640  -0.00028   0.00612   1.84064
   A17        2.69233   0.00140   0.01928   0.01693   0.03621   2.72854
    D1        0.00091  -0.00002   0.00023  -0.00033  -0.00004   0.00087
    D2        3.14046   0.00003  -0.00431   0.00739   0.00317  -3.13956
    D3       -3.14032   0.00003   0.00084   0.00257   0.00336  -3.13696
    D4       -0.00077   0.00008  -0.00369   0.01029   0.00657   0.00580
    D5        0.00146  -0.00014   0.00688  -0.01682  -0.00984  -0.00838
    D6       -2.99761  -0.00014  -0.01396  -0.00755  -0.02123  -3.01884
    D7       -3.13980  -0.00010   0.00745  -0.01414  -0.00670   3.13669
    D8        0.14432  -0.00010  -0.01339  -0.00487  -0.01809   0.12623
    D9        3.13819  -0.00004   0.00890  -0.00254   0.00653  -3.13847
   D10       -0.00070   0.00000   0.00278   0.00169   0.00453   0.00384
   D11        0.00114  -0.00010   0.00531  -0.01082  -0.00538  -0.00423
   D12       -3.13774  -0.00006  -0.00081  -0.00660  -0.00738   3.13807
   D13       -3.13853   0.00009  -0.01105   0.00836  -0.00297  -3.14150
   D14       -0.05931  -0.00010  -0.00658   0.00050  -0.00556  -0.06487
   D15       -0.00158   0.00015  -0.00742   0.01681   0.00925   0.00766
   D16        3.07764  -0.00004  -0.00295   0.00895   0.00666   3.08430
   D17       -0.00019   0.00001  -0.00082  -0.00001  -0.00090  -0.00109
   D18        3.13869  -0.00003   0.00531  -0.00424   0.00111   3.13979
   D19        3.13961   0.00005  -0.00480   0.00675   0.00191   3.14152
   D20       -0.00470   0.00001   0.00134   0.00252   0.00392  -0.00078
   D21       -3.03580  -0.00012  -0.09281  -0.03332  -0.12627   3.12111
   D22        0.24469  -0.00009  -0.11234  -0.02377  -0.13597   0.10873
   D23        1.79408   0.00051   0.11945   0.12036   0.23981   2.03389
         Item               Value     Threshold  Converged?
 Maximum Force            0.001677     0.000450     NO 
 RMS     Force            0.000512     0.000300     NO 
 Maximum Displacement     0.230779     0.001800     NO 
 RMS     Displacement     0.065705     0.001200     NO 
 Predicted change in Energy=-1.743083D-04
 GradGradGradGradGradGradGradGradGradGradGradGradGradGradGradGradGradGrad

                          Input orientation:                          
 ---------------------------------------------------------------------
 Center     Atomic      Atomic             Coordinates (Angstroms)
 Number     Number       Type             X           Y           Z
 ---------------------------------------------------------------------
      1          6           0        0.941218    1.123398    0.016251
      2          6           0        0.048445   -0.830118    0.002332
      3          6           0        1.981963    0.239092   -0.008356
      4          1           0        0.981748    2.199769    0.028493
      5          1           0       -0.657168   -1.645207    0.003147
      6          1           0        3.048865    0.375143   -0.020499
      7          7           0        1.397484   -1.009982   -0.017994
      8          1           0        1.879151   -1.892952   -0.037206
      9          7           0       -0.256785    0.446278    0.029294
     10          8           0       -3.126505    0.021921   -0.065165
     11          1           0       -3.566232    0.356973    0.722280
     12          1           0       -2.235584    0.423345   -0.056754
 ---------------------------------------------------------------------
                    Distance matrix (angstroms):
                    1          2          3          4          5
     1  C    0.000000
     2  C    2.147897   0.000000
     3  C    1.365925   2.209483   0.000000
     4  H    1.077203   3.170482   2.201373   0.000000
     5  H    3.196902   1.078081   3.242795   4.179776   0.000000
     6  H    2.236831   3.233527   1.075611   2.757650   4.221025
     7  N    2.181894   1.361128   1.379092   3.236897   2.150709
     8  H    3.159263   2.117231   2.134716   4.190467   2.548709
     9  N    1.376181   1.312661   2.248630   2.146787   2.129624
    10  O    4.215003   3.287983   5.113397   4.650757   2.980202
    11  H    4.626337   3.872131   5.597337   4.955941   3.603960
    12  H    3.253841   2.606041   4.221847   3.676163   2.602671
                    6          7          8          9         10
     6  H    0.000000
     7  N    2.155375   0.000000
     8  H    2.552012   1.005986   0.000000
     9  N    3.306791   2.204435   3.168382   0.000000
    10  O    6.185625   4.640423   5.359488   2.902463   0.000000
    11  H    6.656693   5.201446   5.940638   3.382402   0.962127
    12  H    5.284794   3.905780   4.721935   1.980802   0.977217
                   11         12
    11  H    0.000000
    12  H    1.543347   0.000000
 Stoichiometry    C3H6N2O
 Framework group  C1[X(C3H6N2O)]
 Deg. of freedom    30
 Full point group                 C1      NOp   1
 Largest Abelian subgroup         C1      NOp   1
 Largest concise Abelian subgroup C1      NOp   1
                         Standard orientation:                         
 ---------------------------------------------------------------------
 Center     Atomic      Atomic             Coordinates (Angstroms)
 Number     Number       Type             X           Y           Z
 ---------------------------------------------------------------------
      1          6           0        0.900582    1.167892   -0.005243
      2          6           0        0.067627   -0.811834    0.013113
      3          6           0        1.967838    0.315415   -0.004920
      4          1           0        0.908338    2.245032   -0.014007
      5          1           0       -0.612914   -1.647884    0.025014
      6          1           0        3.030183    0.483668   -0.012134
      7          7           0        1.421619   -0.950847    0.005981
      8          1           0        1.929990   -1.818929    0.007680
      9          7           0       -0.276390    0.454946    0.012639
     10          8           0       -3.131096   -0.058473   -0.093893
     11          1           0       -3.586866    0.278353    0.683610
     12          1           0       -2.252857    0.370016   -0.087065
 ---------------------------------------------------------------------
 Rotational constants (GHZ):      9.4842707      1.8353633      1.5434389
 Standard basis: Aug-CC-pVTZ (5D, 7F)
 There are   480 symmetry adapted cartesian basis functions of A   symmetry.
 There are   414 symmetry adapted basis functions of A   symmetry.
   414 basis functions,   594 primitive gaussians,   480 cartesian basis functions
    23 alpha electrons       23 beta electrons
       nuclear repulsion energy       222.2802934820 Hartrees.
 NAtoms=   12 NActive=   12 NUniq=   12 SFac= 1.00D+00 NAtFMM=   60 NAOKFM=F Big=F
 Integral buffers will be    131072 words long.
 Raffenetti 2 integral format.
 Two-electron integral symmetry is turned on.
 Nuclear repulsion after empirical dispersion term =      222.2753113238 Hartrees.
 One-electron integrals computed using PRISM.
 NBasis=   414 RedAO= T EigKep=  3.86D-06  NBF=   414
 NBsUse=   414 1.00D-06 EigRej= -1.00D+00 NBFU=   414
 Initial guess from the checkpoint file:  "288-32-4.chk"
 B after Tr=     0.000000    0.000000    0.000000
         Rot=    0.999962    0.001492    0.000253   -0.008578 Ang=   1.00 deg.
 ExpMin= 2.53D-02 ExpMax= 1.53D+04 ExpMxC= 5.22D+02 IAcc=3 IRadAn=         5 AccDes= 0.00D+00
 Harris functional with IExCor=  402 and IRadAn=       5 diagonalized for initial guess.
 HarFok:  IExCor=  402 AccDes= 0.00D+00 IRadAn=         5 IDoV= 1 UseB2=F ITyADJ=14
 ICtDFT=  3500011 ScaDFX=  1.000000  1.000000  1.000000  1.000000
 FoFCou: FMM=F IPFlag=           0 FMFlag=      100000 FMFlg1=           0
         NFxFlg=           0 DoJE=T BraDBF=F KetDBF=T FulRan=T
         wScrn=  0.000000 ICntrl=     500 IOpCl=  0 I1Cent=   200000004 NGrid=           0
         NMat0=    1 NMatS0=      1 NMatT0=    0 NMatD0=    1 NMtDS0=    0 NMtDT0=    0
 Petite list used in FoFCou.
 Requested convergence on RMS density matrix=1.00D-08 within 128 cycles.
 Requested convergence on MAX density matrix=1.00D-06.
 Requested convergence on             energy=1.00D-06.
 No special actions if energy rises.
 SCF Done:  E(RB3LYP) =  -302.786785040     A.U. after   10 cycles
            NFock= 10  Conv=0.38D-08     -V/T= 2.0063
 Calling FoFJK, ICntrl=      2127 FMM=F ISym2X=0 I1Cent= 0 IOpClX= 0 NMat=1 NMatS=1 NMatT=0.
 ***** Axes restored to original set *****
 -------------------------------------------------------------------
 Center     Atomic                   Forces (Hartrees/Bohr)
 Number     Number              X              Y              Z
 -------------------------------------------------------------------
      1        6          -0.000687957    0.000590290    0.000771574
      2        6           0.001928016   -0.000698050    0.001099169
      3        6           0.000026041   -0.001218444   -0.000328972
      4        1           0.000035055   -0.000906648    0.000024936
      5        1           0.000303510    0.000913959   -0.000174391
      6        1          -0.000819284   -0.000113214   -0.000084570
      7        7          -0.000723277    0.000809016   -0.000095542
      8        1          -0.000617864    0.001088493   -0.000052377
      9        7          -0.000521105   -0.000551526   -0.001471663
     10        8           0.001178801    0.001404498    0.000456565
     11        1           0.001168666   -0.000208953   -0.001368032
     12        1          -0.001270601   -0.001109423    0.001223303
 -------------------------------------------------------------------
 Cartesian Forces:  Max     0.001928016 RMS     0.000875390

 GradGradGradGradGradGradGradGradGradGradGradGradGradGradGradGradGradGrad
 Berny optimization.
 Using GEDIIS/GDIIS optimizer.
 FormGI is forming the generalized inverse of G from B-inverse, IUseBI=4.
 Internal  Forces:  Max     0.002620937 RMS     0.000700114
 Search for a local minimum.
 Step number   4 out of a maximum of   62
 All quantities printed in internal units (Hartrees-Bohrs-Radians)
 Mixed Optimization -- En-DIIS/RFO-DIIS
 Swapping is turned off.
 Update second derivatives using D2CorX and points    1    2    3    4
 DE= -2.21D-04 DEPred=-1.74D-04 R= 1.27D+00
 TightC=F SS=  1.41D+00  RLast= 3.19D-01 DXNew= 7.6456D-01 9.5558D-01
 Trust test= 1.27D+00 RLast= 3.19D-01 DXMaxT set to 7.65D-01
 ITU=  1  1  1  0
     Eigenvalues ---    0.00153   0.00445   0.01825   0.02150   0.02256
     Eigenvalues ---    0.02304   0.02393   0.02620   0.03013   0.05274
     Eigenvalues ---    0.08272   0.16000   0.16000   0.16002   0.16089
     Eigenvalues ---    0.17020   0.21990   0.22707   0.23277   0.36715
     Eigenvalues ---    0.36871   0.37923   0.44431   0.46139   0.47802
     Eigenvalues ---    0.51063   0.53299   0.55499   0.60622   0.80674
 En-DIIS/RFO-DIIS IScMMF=        0 using points:     4    3    2
 RFO step:  Lambda=-4.03779921D-05.
 DidBck=F Rises=F RFO-DIIS coefs:    1.09702    0.88108   -0.97810
 Iteration  1 RMS(Cart)=  0.04201054 RMS(Int)=  0.00132418
 Iteration  2 RMS(Cart)=  0.00263244 RMS(Int)=  0.00027832
 Iteration  3 RMS(Cart)=  0.00000810 RMS(Int)=  0.00027825
 Iteration  4 RMS(Cart)=  0.00000000 RMS(Int)=  0.00027825
 Variable       Old X    -DE/DX   Delta X   Delta X   Delta X     New X
                                 (Linear)    (Quad)   (Total)
    R1        2.58122  -0.00030   0.00010  -0.00051  -0.00041   2.58082
    R2        2.03562  -0.00090   0.00115  -0.00169  -0.00054   2.03508
    R3        2.60061  -0.00095   0.00073  -0.00082  -0.00011   2.60050
    R4        2.03728  -0.00089   0.00119  -0.00164  -0.00045   2.03682
    R5        2.57216  -0.00186   0.00273  -0.00237   0.00036   2.57252
    R6        2.48057  -0.00058  -0.00071  -0.00116  -0.00188   2.47869
    R7        2.03261  -0.00083   0.00111  -0.00156  -0.00045   2.03216
    R8        2.60611  -0.00150   0.00157  -0.00184  -0.00025   2.60585
    R9        1.90104  -0.00125   0.00140  -0.00198  -0.00057   1.90046
   R10        3.74317  -0.00109   0.01066  -0.01905  -0.00839   3.73478
   R11        1.81816  -0.00173   0.00124  -0.00192  -0.00069   1.81747
   R12        1.84667  -0.00262   0.00220  -0.00328  -0.00107   1.84560
    A1        2.23755   0.00007   0.00043   0.00016   0.00059   2.23815
    A2        1.92294  -0.00028   0.00041  -0.00103  -0.00066   1.92229
    A3        2.12268   0.00021  -0.00084   0.00090   0.00006   2.12275
    A4        2.15172   0.00029  -0.00304   0.00135  -0.00170   2.15003
    A5        2.19316  -0.00046   0.00233  -0.00064   0.00168   2.19484
    A6        1.93827   0.00017   0.00072  -0.00064   0.00004   1.93831
    A7        2.31051   0.00002   0.00015  -0.00007   0.00008   2.31059
    A8        1.83752  -0.00002   0.00037   0.00002   0.00039   1.83791
    A9        2.13515   0.00000  -0.00052   0.00005  -0.00047   2.13468
   A10        1.87576   0.00029  -0.00140   0.00093  -0.00047   1.87529
   A11        2.20287  -0.00016   0.00105  -0.00061   0.00044   2.20331
   A12        2.20455  -0.00013   0.00036  -0.00032   0.00003   2.20459
   A13        1.85024  -0.00016  -0.00010   0.00081   0.00073   1.85097
   A14        2.63609  -0.00043  -0.02108  -0.01564  -0.03686   2.59923
   A15        1.79276   0.00060   0.02169   0.01538   0.03719   1.82994
   A16        1.84064  -0.00095   0.00386  -0.00221   0.00165   1.84229
   A17        2.72854   0.00087   0.01333   0.01108   0.02441   2.75295
    D1        0.00087   0.00003   0.00011   0.00120   0.00146   0.00233
    D2       -3.13956  -0.00004  -0.00189   0.00003  -0.00164  -3.14120
    D3       -3.13696  -0.00020   0.00076  -0.00670  -0.00602   3.14021
    D4        0.00580  -0.00027  -0.00124  -0.00786  -0.00912  -0.00332
    D5       -0.00838   0.00039   0.00255   0.00998   0.01270   0.00432
    D6       -3.01884   0.00010  -0.00917  -0.00100  -0.00953  -3.02837
    D7        3.13669   0.00017   0.00315   0.00270   0.00580  -3.14070
    D8        0.12623  -0.00012  -0.00857  -0.00828  -0.01643   0.10979
    D9       -3.13847  -0.00014   0.00517  -0.00540   0.00017  -3.13829
   D10        0.00384  -0.00010   0.00186  -0.00300  -0.00095   0.00289
   D11       -0.00423   0.00018   0.00218   0.00343   0.00585   0.00162
   D12        3.13807   0.00021  -0.00113   0.00583   0.00473  -3.14039
   D13       -3.14150  -0.00001  -0.00592   0.00096  -0.00542   3.13626
   D14       -0.06487   0.00007  -0.00389   0.00432   0.00147  -0.06340
   D15        0.00766  -0.00034  -0.00288  -0.00813  -0.01126  -0.00360
   D16        3.08430  -0.00026  -0.00086  -0.00478  -0.00438   3.07992
   D17       -0.00109   0.00006  -0.00051   0.00281   0.00218   0.00109
   D18        3.13979   0.00003   0.00281   0.00041   0.00330  -3.14009
   D19        3.14152   0.00000  -0.00226   0.00179  -0.00053   3.14099
   D20       -0.00078  -0.00003   0.00106  -0.00061   0.00059  -0.00019
   D21        3.12111   0.00008  -0.05953  -0.00820  -0.06790   3.05321
   D22        0.10873  -0.00019  -0.07042  -0.01860  -0.08885   0.01988
   D23        2.03389   0.00026   0.08412   0.07467   0.15879   2.19268
         Item               Value     Threshold  Converged?
 Maximum Force            0.002621     0.000450     NO 
 RMS     Force            0.000700     0.000300     NO 
 Maximum Displacement     0.172601     0.001800     NO 
 RMS     Displacement     0.043736     0.001200     NO 
 Predicted change in Energy=-8.947187D-05
 GradGradGradGradGradGradGradGradGradGradGradGradGradGradGradGradGradGrad

                          Input orientation:                          
 ---------------------------------------------------------------------
 Center     Atomic      Atomic             Coordinates (Angstroms)
 Number     Number       Type             X           Y           Z
 ---------------------------------------------------------------------
      1          6           0        0.923178    1.108050    0.027406
      2          6           0        0.069184   -0.862445    0.010805
      3          6           0        1.980583    0.244860   -0.016853
      4          1           0        0.941996    2.184624    0.047130
      5          1           0       -0.618640   -1.692273    0.015692
      6          1           0        3.044162    0.401950   -0.040258
      7          7           0        1.421358   -1.015579   -0.026223
      8          1           0        1.920294   -1.888302   -0.054770
      9          7           0       -0.260732    0.406698    0.040826
     10          8           0       -3.141193    0.053503   -0.062036
     11          1           0       -3.607676    0.448309    0.680601
     12          1           0       -2.235914    0.418263   -0.026495
 ---------------------------------------------------------------------
                    Distance matrix (angstroms):
                    1          2          3          4          5
     1  C    0.000000
     2  C    2.147657   0.000000
     3  C    1.365709   2.209148   0.000000
     4  H    1.076920   3.169819   2.201236   0.000000
     5  H    3.196740   1.077841   3.241836   4.179343   0.000000
     6  H    2.236454   3.232924   1.075372   2.757656   4.219599
     7  N    2.181939   1.361321   1.378959   3.236737   2.149712
     8  H    3.158974   2.117378   2.134350   4.190009   2.547465
     9  N    1.376124   1.311667   2.247890   2.146536   2.129415
    10  O    4.199903   3.339280   5.125549   4.607172   3.068721
    11  H    4.624993   3.960556   5.635288   4.910763   3.736112
    12  H    3.233972   2.637249   4.220072   3.636559   2.659270
                    6          7          8          9         10
     6  H    0.000000
     7  N    2.154780   0.000000
     8  H    2.551185   1.005682   0.000000
     9  N    3.305892   2.203813   3.167497   0.000000
    10  O    6.195201   4.686267   5.421191   2.903857   0.000000
    11  H    6.690944   5.285239   6.046401   3.407797   0.961762
    12  H    5.280119   3.928300   4.753431   1.976363   0.976649
                   11         12
    11  H    0.000000
    12  H    1.543573   0.000000
 Stoichiometry    C3H6N2O
 Framework group  C1[X(C3H6N2O)]
 Deg. of freedom    30
 Full point group                 C1      NOp   1
 Largest Abelian subgroup         C1      NOp   1
 Largest concise Abelian subgroup C1      NOp   1
                         Standard orientation:                         
 ---------------------------------------------------------------------
 Center     Atomic      Atomic             Coordinates (Angstroms)
 Number     Number       Type             X           Y           Z
 ---------------------------------------------------------------------
      1          6           0        0.866679    1.169524   -0.001099
[...]
 Variable       Old X    -DE/DX   Delta X   Delta X   Delta X     New X
                                 (Linear)    (Quad)   (Total)
    R1        2.58130   0.00000   0.00000  -0.00001  -0.00001   2.58129
    R2        2.03307   0.00000   0.00000   0.00000   0.00000   2.03307
    R3        2.59822   0.00001   0.00000   0.00004   0.00004   2.59826
    R4        2.03459   0.00000   0.00000   0.00000   0.00000   2.03459
    R5        2.56747   0.00002   0.00000   0.00007   0.00007   2.56753
    R6        2.47921  -0.00001   0.00000  -0.00004  -0.00004   2.47917
    R7        2.03034   0.00000   0.00000   0.00001   0.00001   2.03035
    R8        2.60226  -0.00001   0.00000  -0.00003  -0.00003   2.60223
    R9        1.89857   0.00000   0.00000   0.00000   0.00000   1.89857
   R10        3.60077   0.00000   0.00000  -0.00011  -0.00011   3.60066
   R11        1.81494   0.00000   0.00000   0.00001   0.00001   1.81494
   R12        1.84809   0.00001   0.00000   0.00002   0.00002   1.84811
    A1        2.23846   0.00000   0.00000   0.00005   0.00005   2.23851
    A2        1.92142   0.00000   0.00000  -0.00002  -0.00002   1.92139
    A3        2.12331   0.00000   0.00000  -0.00003  -0.00003   2.12328
    A4        2.15024  -0.00001   0.00000  -0.00007  -0.00007   2.15017
    A5        2.19502   0.00000   0.00000   0.00006   0.00006   2.19508
    A6        1.93792   0.00000   0.00000   0.00001   0.00001   1.93793
    A7        2.31048  -0.00001   0.00000  -0.00008  -0.00008   2.31040
    A8        1.83754   0.00001   0.00000   0.00004   0.00004   1.83758
    A9        2.13516   0.00000   0.00000   0.00004   0.00004   2.13521
   A10        1.87703  -0.00001   0.00000  -0.00003  -0.00003   1.87701
   A11        2.20243   0.00000   0.00000  -0.00001  -0.00001   2.20242
   A12        2.20372   0.00000   0.00000   0.00003   0.00003   2.20375
   A13        1.85087   0.00000   0.00000   0.00001   0.00001   1.85088
   A14        2.40816   0.00000   0.00000  -0.00013  -0.00013   2.40802
   A15        2.01928   0.00000   0.00000   0.00015   0.00015   2.01943
   A16        1.83790   0.00000   0.00000   0.00001   0.00001   1.83791
   A17        2.96029   0.00000   0.00000   0.00016   0.00016   2.96044
    D1        0.00214   0.00000   0.00000  -0.00016  -0.00016   0.00198
    D2       -3.13826   0.00000   0.00000  -0.00008  -0.00008  -3.13835
    D3        3.14078   0.00000   0.00000  -0.00008  -0.00008   3.14070
    D4        0.00038   0.00000   0.00000   0.00000   0.00000   0.00038
    D5       -0.00070   0.00000   0.00000  -0.00001  -0.00001  -0.00071
    D6       -3.02543   0.00000   0.00000  -0.00025  -0.00025  -3.02568
    D7        3.13817   0.00000   0.00000   0.00007   0.00007   3.13824
    D8        0.11344   0.00000   0.00000  -0.00018  -0.00018   0.11327
    D9        3.13712   0.00000   0.00000  -0.00001   0.00000   3.13712
   D10       -0.00069   0.00000   0.00000   0.00015   0.00015  -0.00054
   D11       -0.00053   0.00000   0.00000  -0.00001  -0.00001  -0.00054
   D12       -3.13834   0.00000   0.00000   0.00014   0.00014  -3.13820
   D13       -3.13678   0.00000   0.00000   0.00001   0.00001  -3.13677
   D14       -0.08191   0.00000   0.00000   0.00017   0.00017  -0.08175
   D15        0.00075   0.00000   0.00000   0.00001   0.00001   0.00076
   D16        3.05562   0.00000   0.00000   0.00017   0.00017   3.05579
   D17        0.00008   0.00000   0.00000   0.00001   0.00001   0.00008
   D18        3.13788   0.00000   0.00000  -0.00015  -0.00015   3.13774
   D19       -3.14047   0.00000   0.00000   0.00008   0.00008  -3.14040
   D20       -0.00267   0.00000   0.00000  -0.00008  -0.00008  -0.00275
   D21        2.83854   0.00000   0.00000  -0.00132  -0.00132   2.83722
   D22       -0.17838   0.00000   0.00000  -0.00157  -0.00157  -0.17995
   D23        2.25124   0.00000   0.00000   0.00126   0.00126   2.25249
         Item               Value     Threshold  Converged?
 Maximum Force            0.000020     0.000450     YES
 RMS     Force            0.000005     0.000300     YES
 Maximum Displacement     0.000513     0.001800     YES
 RMS     Displacement     0.000143     0.001200     YES
 Predicted change in Energy=-3.886532D-09
 Optimization completed.
    -- Stationary point found.
                           ----------------------------
                           !   Optimized Parameters   !
                           ! (Angstroms and Degrees)  !
 --------------------------                            --------------------------
 ! Name  Definition              Value          Derivative Info.                !
 --------------------------------------------------------------------------------
 ! R1    R(1,3)                  1.366          -DE/DX =    0.0                 !
 ! R2    R(1,4)                  1.0759         -DE/DX =    0.0                 !
 ! R3    R(1,9)                  1.3749         -DE/DX =    0.0                 !
 ! R4    R(2,5)                  1.0767         -DE/DX =    0.0                 !
 ! R5    R(2,7)                  1.3586         -DE/DX =    0.0                 !
 ! R6    R(2,9)                  1.3119         -DE/DX =    0.0                 !
 ! R7    R(3,6)                  1.0744         -DE/DX =    0.0                 !
 ! R8    R(3,7)                  1.3771         -DE/DX =    0.0                 !
 ! R9    R(7,8)                  1.0047         -DE/DX =    0.0                 !
 ! R10   R(9,12)                 1.9054         -DE/DX =    0.0                 !
 ! R11   R(10,11)                0.9604         -DE/DX =    0.0                 !
 ! R12   R(10,12)                0.978          -DE/DX =    0.0                 !
 ! A1    A(3,1,4)              128.2543         -DE/DX =    0.0                 !
 ! A2    A(3,1,9)              110.089          -DE/DX =    0.0                 !
 ! A3    A(4,1,9)              121.6565         -DE/DX =    0.0                 !
 ! A4    A(5,2,7)              123.1995         -DE/DX =    0.0                 !
 ! A5    A(5,2,9)              125.7655         -DE/DX =    0.0                 !
 ! A6    A(7,2,9)              111.0346         -DE/DX =    0.0                 !
 ! A7    A(1,3,6)              132.3807         -DE/DX =    0.0                 !
 ! A8    A(1,3,7)              105.2833         -DE/DX =    0.0                 !
 ! A9    A(6,3,7)              122.3359         -DE/DX =    0.0                 !
 ! A10   A(2,7,3)              107.5459         -DE/DX =    0.0                 !
 ! A11   A(2,7,8)              126.1901         -DE/DX =    0.0                 !
 ! A12   A(3,7,8)              126.2636         -DE/DX =    0.0                 !
 ! A13   A(1,9,2)              106.0471         -DE/DX =    0.0                 !
 ! A14   A(1,9,12)             137.9772         -DE/DX =    0.0                 !
 ! A15   A(2,9,12)             115.6964         -DE/DX =    0.0                 !
 ! A16   A(11,10,12)           105.3042         -DE/DX =    0.0                 !
 ! A17   A(9,12,10)            169.612          -DE/DX =    0.0                 !
 ! D1    D(4,1,3,6)              0.1224         -DE/DX =    0.0                 !
 ! D2    D(4,1,3,7)           -179.8093         -DE/DX =    0.0                 !
 ! D3    D(9,1,3,6)            179.9535         -DE/DX =    0.0                 !
 ! D4    D(9,1,3,7)              0.0217         -DE/DX =    0.0                 !
 ! D5    D(3,1,9,2)             -0.0401         -DE/DX =    0.0                 !
 ! D6    D(3,1,9,12)          -173.3444         -DE/DX =    0.0                 !
 ! D7    D(4,1,9,2)            179.804          -DE/DX =    0.0                 !
 ! D8    D(4,1,9,12)             6.4997         -DE/DX =    0.0                 !
 ! D9    D(5,2,7,3)            179.7437         -DE/DX =    0.0                 !
 ! D10   D(5,2,7,8)             -0.0395         -DE/DX =    0.0                 !
 ! D11   D(9,2,7,3)             -0.0305         -DE/DX =    0.0                 !
 ! D12   D(9,2,7,8)           -179.8138         -DE/DX =    0.0                 !
 ! D13   D(5,2,9,1)           -179.7242         -DE/DX =    0.0                 !
 ! D14   D(5,2,9,12)            -4.6933         -DE/DX =    0.0                 !
 ! D15   D(7,2,9,1)              0.0431         -DE/DX =    0.0                 !
 ! D16   D(7,2,9,12)           175.0739         -DE/DX =    0.0                 !
 ! D17   D(1,3,7,2)              0.0044         -DE/DX =    0.0                 !
 ! D18   D(1,3,7,8)            179.7875         -DE/DX =    0.0                 !
 ! D19   D(6,3,7,2)           -179.9359         -DE/DX =    0.0                 !
 ! D20   D(6,3,7,8)             -0.1529         -DE/DX =    0.0                 !
 ! D21   D(1,9,12,10)          162.6364         -DE/DX =    0.0                 !
 ! D22   D(2,9,12,10)          -10.2203         -DE/DX =    0.0                 !
 ! D23   D(11,10,12,9)         128.9865         -DE/DX =    0.0                 !
 --------------------------------------------------------------------------------
 GradGradGradGradGradGradGradGradGradGradGradGradGradGradGradGradGradGrad

 1\1\GINC-NODE103\Freq\RB3LYP\Aug-CC-pVTZ\C3H6N2O1\KAESER\30-Sep-2021\0
 \\#N Geom=AllCheck Guess=TCheck SCRF=Check GenChk RB3LYP/Aug-CC-pVTZ F
 req\\Title Card Required\\0,1\C,0.797592043,1.0302526652,0.0382453351\
 C,0.1384931859,-1.0127568422,0.01504049\C,1.9325236532,0.2720599471,-0
 .015945439\H,0.7133452276,2.1025455149,0.0617830656\H,-0.465485399,-1.
 9040417282,0.0113693802\H,2.9750793735,0.5300346939,-0.0456952807\N,1.
 4962182183,-1.0339711394,-0.030220846\H,2.075701326,-1.8537057371,-0.0
 704046203\N,-0.3120644659,0.2186566297,0.0575916166\O,-3.1779525384,0.
 3336886725,-0.105004725\H,-3.5305524443,0.7162856158,0.7022782962\H,-2
 .2062971798,0.4086107078,-0.0232132726\\Version=ES64L-G09RevD.01\State
 =1-A\HF=-302.7871041\RMSD=3.393e-09\RMSF=1.002e-05\ZeroPoint=0.0952501
 \Thermal=0.1024378\Dipole=2.0227612,-0.6580148,0.4696291\DipoleDeriv=0
 .1477492,-0.008191,-0.0092409,0.1038589,0.1451637,0.001162,-0.0055613,
 0.0027565,-0.1224913,0.4435878,-0.2764621,-0.0191488,-0.2942032,0.2172
 338,0.0165522,-0.0161285,0.0177827,0.0114425,-0.0874356,0.0083676,-0.0
 037664,-0.2076946,0.2269445,0.0162065,-0.0075606,0.0076596,-0.1467944,
 0.0835436,0.0001664,0.0027679,-0.0256137,-0.0232952,-0.003861,0.001945
 ,-0.0031225,0.161727,0.0829396,-0.0230664,0.0031863,-0.0076086,0.02225
 11,-0.0025076,0.0014462,-0.0036826,0.1619344,-0.0079934,-0.017453,0.00
 60566,0.0033541,0.075103,-0.0025829,0.0072623,-0.0021066,0.1933213,-0.
 3277478,0.2324756,0.0073482,0.3612558,-0.3880434,-0.0161106,0.0114422,
 -0.0103725,-0.2139197,0.1833161,-0.0252452,0.0032964,-0.0248775,0.2084
 184,-0.0012031,0.0046114,-0.0017408,0.3081535,-0.7573383,0.1513235,0.0
 10065,0.1297499,-0.3783165,-0.0107783,0.004132,-0.0106042,-0.2608112,-
 1.0245745,0.0815382,0.0427259,0.0287893,-0.5738561,0.1106804,-0.006041
 6,0.1079971,-0.4128137,0.2918317,-0.0066414,-0.004513,0.0016553,0.2623
 798,-0.0815029,0.0156321,-0.0788862,0.1349748,0.9721216,-0.1168123,-0.
 0387771,-0.0686656,0.206017,-0.0260548,-0.0111792,-0.0256806,0.1852768
 \Polar=73.0501711,-0.1564881,64.2193372,-1.1460473,0.5455146,42.058153
 5\PG=C01 [X(C3H6N2O1)]\NImag=0\\0.56960155,-0.08904968,0.87266738,-0.0
 1614251,0.01803781,0.13773268,0.00764037,-0.00833468,0.00014599,0.6663
 5066,-0.06839982,-0.09748876,-0.00016482,0.12307375,0.86396178,-0.0011
 4929,-0.00219829,0.01150851,-0.01382866,0.01338675,0.14125101,-0.28713
 429,0.14349322,0.01034409,-0.06694343,-0.02062969,0.00230838,0.8959903
 0,0.12623774,-0.19686372,-0.00663000,-0.07088962,-0.03683592,0.0014532
 6,0.02551037,0.56738877,0.01010160,-0.00748931,-0.06954357,0.00112105,
 -0.00044358,0.01680597,-0.02563685,0.00904091,0.11686454,-0.06083381,0
 .03363989,0.00169332,-0.00514501,-0.00413156,0.00023027,0.00695691,0.0
 2193062,0.00022202,0.05600154,0.03044163,-0.35030517,-0.00724639,-0.00
 277128,-0.00026524,-0.00000089,-0.00326080,-0.00543114,-0.00000963,-0.
 02588075,0.36883360,0.00160019,-0.00715330,-0.03041452,0.00024878,0.00
 002755,0.00499221,-0.00026412,-0.00094319,0.00059754,-0.00164296,0.007
 58062,0.02368453,0.00067281,0.00353469,0.00024614,-0.15333765,-0.13568
 101,0.00059258,-0.00477502,0.00411980,0.00033175,0.00083915,0.00034720
 ,0.00000994,0.15619428,0.00307347,-0.00365409,-0.00034662,-0.13916320,
 -0.25688866,-0.00143322,0.00224682,0.00022901,-0.00014086,-0.00109257,
 -0.00038077,-0.00000074,0.14630994,0.27164239,0.00020355,-0.00032192,0
 .00646983,0.00035082,-0.00178649,-0.02725163,0.00032031,-0.00025973,0.
 00274370,-0.00001631,-0.00004014,0.00113496,-0.00061218,0.00173327,0.0
 2179829,-0.00676681,-0.01089172,-0.00000881,-0.00002147,0.00159398,0.0
 0012371,-0.34579879,-0.07019447,0.00942404,-0.00006531,0.00042951,-0.0
 0007245,0.00013860,0.00000157,0.00005991,0.35570551,0.01172840,0.01404
 188,-0.00010091,0.00140097,-0.00780602,-0.00028959,-0.06027195,-0.0738
 8577,0.00090694,-0.00070037,-0.00026607,0.00007419,-0.00128654,0.00060
 721,0.00002232,0.07683139,0.07029667,0.00048032,0.00066782,-0.00023250
 ,0.00011939,-0.00027714,0.00275544,0.00965076,0.00125632,-0.02339919,-
 0.00008994,0.00002048,-0.00245084,0.00002821,-0.00003755,0.00179424,-0
 .00973834,-0.00145901,0.01956159,-0.00898302,0.00231891,0.00060813,-0.
 30670524,-0.01421566,0.00745130,-0.13440607,-0.05051554,0.00170236,-0.
 00471449,0.00159495,0.00038513,-0.01355590,0.00519735,0.00062890,0.000
 51091,-0.03393262,-0.00089508,0.72949892,0.06356197,-0.08170110,-0.004
 42849,-0.01135022,-0.11108974,-0.00108388,-0.05784782,-0.26723713,-0.0
 0276648,0.00372800,0.00032871,-0.00022060,-0.02775129,0.00914892,0.001
 24874,0.00209161,-0.00350155,-0.00006690,-0.17570177,0.83840313,0.0020
 1985,-0.00220628,0.01353401,0.00797825,-0.00092120,-0.06321805,0.00147
 986,-0.00330158,-0.05497777,0.00041865,-0.00014312,0.00520218,-0.00029
 330,0.00008405,-0.00101852,-0.00009095,0.00115155,-0.00352723,-0.02599
 524,0.02384596,0.08908512,-0.00178311,-0.00647056,0.00000581,-0.001076
 18,0.02884431,0.00051478,0.01513019,-0.00940411,-0.00099485,0.00101317
 ,-0.00021543,0.00003137,-0.00016712,-0.00089258,-0.00007934,-0.0002415
 6,0.00042160,-0.00003091,-0.20115804,0.18168972,0.01121696,0.19658184,
 -0.00209274,-0.00553251,-0.00010673,-0.00079002,0.00746916,0.00041097,
 0.02038729,-0.00932036,-0.00078905,0.00093263,0.00001497,-0.00007659,0
 .00009515,-0.00012004,0.00003314,-0.00067461,0.00046962,0.00007067,0.1
 8116241,-0.33082466,-0.01419964,-0.19560387,0.33526095,0.00012961,0.00
 004695,0.00249596,-0.00026293,-0.00056416,-0.00757917,-0.00030315,0.00
 032842,-0.00654716,0.00004861,-0.00002393,0.00184620,-0.00003695,0.000
 07128,-0.00155225,-0.00005617,0.00002348,-0.00133822,0.01128104,-0.014
 37383,-0.00720140,-0.01120253,0.01466419,0.01309675,-0.21120437,-0.067
 03906,0.00310427,-0.13901114,0.08648100,0.00377396,-0.07973823,0.02373
 435,0.00382040,0.00580522,-0.00075959,-0.00036945,0.01341744,-0.015160
 36,-0.00090490,-0.00357482,0.00593987,0.00048622,-0.06272356,0.0224577
 5,0.00338928,-0.00850338,-0.00358008,0.00040409,0.50250273,-0.07443299
 ,-0.15231123,0.00102394,0.10579985,-0.36031551,-0.01027401,-0.04902343
 ,0.02223602,0.00168000,-0.02835727,-0.01246847,0.00069255,0.01044723,-
 0.02050064,-0.00064600,0.00087342,-0.00004380,-0.00018511,0.08408371,-
 0.05317788,-0.00425772,0.00158164,0.00259947,-0.00014820,-0.05184486,0
 .57849010,0.00252225,0.00067342,-0.07135108,0.00399280,-0.00918522,-0.
 07944690,0.00211147,-0.00100130,0.01720794,-0.00087924,-0.00014202,-0.
 00448120,-0.00027835,0.00010063,-0.00383297,0.00034528,-0.00031613,0.0
 0674368,0.00491168,-0.00212568,0.02178855,0.00051506,0.00001411,0.0066
 4085,-0.01309132,0.01169359,0.10955431,0.00013761,0.00435202,-0.000020
 58,0.00069856,-0.00465929,-0.00023472,-0.00203791,-0.00019912,0.000083
 30,-0.00003769,-0.00025561,-0.00000666,-0.00007347,0.00023083,-0.00000
 449,-0.00035437,0.00036397,0.00003241,-0.00343119,0.00172702,0.0001937
 9,-0.00033641,-0.00032029,0.00003225,-0.01571387,-0.00014018,-0.000571
 73,0.55937638,0.00090700,-0.00074491,-0.00005166,-0.00172036,-0.000698
 93,0.00001947,0.00062704,0.00036007,-0.00002786,0.00026815,0.00008867,
 0.00002825,-0.00053575,0.00043158,0.00011775,0.00004954,-0.00001512,0.
 00000918,-0.00051970,0.00090858,-0.00001339,-0.00013783,-0.00003296,0.
 00002135,0.00157733,0.00466060,0.00027555,-0.03273920,0.10075846,-0.00
 001669,0.00021671,0.00036667,-0.00014177,-0.00002761,0.00001439,-0.000
 10477,-0.00002855,-0.00018462,-0.00003179,-0.00002417,-0.00002385,0.00
 001537,0.00000855,-0.00021952,-0.00000542,0.00001363,-0.00016469,-0.00
 008428,0.00003938,-0.00011960,-0.00001084,-0.00000852,-0.00021094,0.00
 032262,0.00007015,0.00481993,-0.10612280,0.19695315,0.41582619,-0.0003
 7855,0.00011587,-0.00010281,0.00002564,0.00015744,-0.00000792,-0.00003
 831,-0.00000779,0.00006298,-0.00006056,-0.00002297,0.00000519,0.000020
 67,0.00002880,-0.00000813,-0.00000839,0.00000873,0.00005006,0.00021076
 ,-0.00019528,0.00007442,-0.00001471,0.00004084,0.00006224,-0.00132159,
 -0.00085428,-0.00164531,-0.10470566,0.05576351,0.12190403,0.12023027,0
 .00005233,0.00020786,0.00006235,0.00016332,-0.00013678,-0.00004033,-0.
 00011077,0.00002408,-0.00001525,-0.00007291,-0.00002934,0.00001435,0.0
 0000164,0.00000876,-0.00013778,-0.00001195,0.00000859,-0.00001961,-0.0
 0006912,-0.00009643,0.00006885,-0.00000294,0.00000199,-0.00001261,-0.0
 0044955,0.00006111,-0.00003364,0.07963891,-0.08479957,-0.17845945,-0.0
 7558931,0.08448584,-0.00000660,0.00003523,-0.00000589,0.00005008,-0.00
 014330,0.00001486,-0.00004942,-0.00000500,0.00000142,0.00003990,-0.000
 00404,0.00001701,0.00001896,-0.00000532,0.00002354,-0.00002516,0.00001
 261,0.00001212,-0.00012573,0.00008720,-0.00000792,-0.00002557,0.000000
 40,0.00001675,-0.00081067,0.00005126,-0.00013209,0.17043466,-0.1766470
 8,-0.37325701,-0.16348717,0.17713519,0.37400186,-0.00096839,-0.0056689
 0,0.00012697,-0.00247512,0.00756656,0.00022562,0.00279467,-0.00032223,
 -0.00023780,0.00024089,0.00035314,0.00007504,0.00062620,-0.00078007,0.
 00006187,0.00047652,-0.00050346,-0.00009310,0.00545692,-0.00240970,-0.
 00039156,0.00055532,0.00044331,-0.00009609,0.00006557,0.00186716,0.002
 06741,-0.43352199,-0.02353973,-0.01572364,-0.01395956,-0.00354965,-0.0
 0601329,0.44070898,-0.00202730,0.00168438,-0.00004848,0.00458149,0.000
 09464,0.00004976,-0.00112027,-0.00066390,0.00005416,-0.00026385,-0.000
 11974,-0.00002308,0.00039895,-0.00052368,0.00003685,-0.00009828,0.0000
 9434,0.00002086,0.00059709,-0.00116086,-0.00010751,0.00019004,0.000014
 37,-0.00003295,-0.00135679,-0.00922977,0.00004669,-0.04799909,-0.02091
 647,-0.01875328,0.02055445,0.00026390,-0.00051716,0.02654357,0.0304627
 9,0.00025771,-0.00030885,-0.00056011,0.00022620,0.00009923,0.00015336,
 0.00014345,0.00009043,0.00043121,0.00000748,0.00003323,-0.00010422,-0.
 00002216,-0.00003348,-0.00008967,0.00004436,-0.00003909,0.00024559,0.0
 0013180,-0.00015544,0.00046063,0.00006006,-0.00001296,0.00033264,-0.00
 012449,0.00029956,-0.00751102,-0.06381541,-0.02068472,-0.04684693,0.04
 309241,0.00143795,-0.00068465,0.01999858,0.01927414,0.05417318\\-0.000
 01741,-0.00001118,0.00000589,0.00002992,-0.00002014,-0.00000255,0.0000
 1236,0.00001908,-0.00000430,0.00000205,0.00000041,-0.00000191,-0.00000
 235,0.00000359,-0.00000064,-0.00000039,-0.00000321,0.00000216,-0.00002
 714,-0.00000275,-0.00000358,0.00000161,0.00000409,0.00000102,0.0000031
 0,0.00001522,0.00000390,0.00000731,-0.00000121,0.00000621,0.00000094,-
 0.00000399,-0.00000195,-0.00000999,0.00000010,-0.00000428\\\@


 FROM AN ANONYMOUS WRITER, ON PERSPECTIVE:

 MAN, DESPITE HIS ARTISTIC PRETENSIONS, HIS SOPHISTICATION AND MANY 
 ACCOMPLISHMENTS, OWES THE FACT OF HIS EXISTENCE TO A SIX-INCH LAYER OF 
 TOPSOIL AND THE FACT THAT IT RAINS.
 Job cpu time:       0 days  2 hours 37 minutes 41.6 seconds.
 File lengths (MBytes):  RWF=    167 Int=      0 D2E=      0 Chk=     14 Scr=      1
 Normal termination of Gaussian 09 at Thu Sep 30 21:27:19 2021.
