 Entering Gaussian System, Link 0=/opt/cluster/programs/g09/g09_d.01/g09//g09
 Input=/home/kaeser/nnprojects/hydra_challenge/b3lypd3/327-54-8.com
 Output=/scratch/kaeser/327-54-8/327-54-8.out
 Initial command:
 /opt/cluster/programs/g09/g09_d.01/g09/l1.exe "/scratch/kaeser/327-54-8/Gau-193342.inp" -scrdir="/scratch/kaeser/327-54-8/"
 Entering Link 1 = /opt/cluster/programs/g09/g09_d.01/g09/l1.exe PID=    193364.
  
 Copyright (c) 1988,1990,1992,1993,1995,1998,2003,2009,2013,
            Gaussian, Inc.  All Rights Reserved.
  
 This is part of the Gaussian(R) 09 program.  It is based on
 the Gaussian(R) 03 system (copyright 2003, Gaussian, Inc.),
 the Gaussian(R) 98 system (copyright 1998, Gaussian, Inc.),
 the Gaussian(R) 94 system (copyright 1995, Gaussian, Inc.),
 the Gaussian 92(TM) system (copyright 1992, Gaussian, Inc.),
 the Gaussian 90(TM) system (copyright 1990, Gaussian, Inc.),
 the Gaussian 88(TM) system (copyright 1988, Gaussian, Inc.),
 the Gaussian 86(TM) system (copyright 1986, Carnegie Mellon
 University), and the Gaussian 82(TM) system (copyright 1983,
 Carnegie Mellon University). Gaussian is a federally registered
 trademark of Gaussian, Inc.
  
 This software contains proprietary and confidential information,
 including trade secrets, belonging to Gaussian, Inc.
  
 This software is provided under written license and may be
 used, copied, transmitted, or stored only in accord with that
 written license.
  
 The following legend is applicable only to US Government
 contracts under FAR:
  
                    RESTRICTED RIGHTS LEGEND
  
 Use, reproduction and disclosure by the US Government is
 subject to restrictions as set forth in subparagraphs (a)
 and (c) of the Commercial Computer Software - Restricted
 Rights clause in FAR 52.227-19.
  
 Gaussian, Inc.
 340 Quinnipiac St., Bldg. 40, Wallingford CT 06492
  
  
 ---------------------------------------------------------------
 Warning -- This program may not be used in any manner that
 competes with the business of Gaussian, Inc. or will provide
 assistance to any competitor of Gaussian, Inc.  The licensee
 of this program is prohibited from giving any competitor of
 Gaussian, Inc. access to this program.  By using this program,
 the user acknowledges that Gaussian, Inc. is engaged in the
 business of creating and licensing software in the field of
 computational chemistry and represents and warrants to the
 licensee that it is not a competitor of Gaussian, Inc. and that
 it will not use this program in any manner prohibited above.
 ---------------------------------------------------------------
  

 Cite this work as:
 Gaussian 09, Revision D.01,
 M. J. Frisch, G. W. Trucks, H. B. Schlegel, G. E. Scuseria, 
 M. A. Robb, J. R. Cheeseman, G. Scalmani, V. Barone, B. Mennucci, 
 G. A. Petersson, H. Nakatsuji, M. Caricato, X. Li, H. P. Hratchian, 
 A. F. Izmaylov, J. Bloino, G. Zheng, J. L. Sonnenberg, M. Hada, 
 M. Ehara, K. Toyota, R. Fukuda, J. Hasegawa, M. Ishida, T. Nakajima, 
 Y. Honda, O. Kitao, H. Nakai, T. Vreven, J. A. Montgomery, Jr., 
 J. E. Peralta, F. Ogliaro, M. Bearpark, J. J. Heyd, E. Brothers, 
 K. N. Kudin, V. N. Staroverov, T. Keith, R. Kobayashi, J. Normand, 
 K. Raghavachari, A. Rendell, J. C. Burant, S. S. Iyengar, J. Tomasi, 
 M. Cossi, N. Rega, J. M. Millam, M. Klene, J. E. Knox, J. B. Cross, 
 V. Bakken, C. Adamo, J. Jaramillo, R. Gomperts, R. E. Stratmann, 
 O. Yazyev, A. J. Austin, R. Cammi, C. Pomelli, J. W. Ochterski, 
 R. L. Martin, K. Morokuma, V. G. Zakrzewski, G. A. Voth, 
 P. Salvador, J. J. Dannenberg, S. Dapprich, A. D. Daniels, 
 O. Farkas, J. B. Foresman, J. V. Ortiz, J. Cioslowski, 
 and D. J. Fox, Gaussian, Inc., Wallingford CT, 2013.
 
 ******************************************
 Gaussian 09:  ES64L-G09RevD.01 24-Apr-2013
                30-Sep-2021 
 ******************************************
 %chk=327-54-8.chk
 %mem=8GB
 %nprocshared=8
 Will use up to    8 processors via shared memory.
 ----------------------------------------------------------------------
 # opt freq b3lyp/aug-cc-pvtz EmpiricalDispersion=GD3 geom=connectivity
 ----------------------------------------------------------------------
 1/14=-1,18=20,19=15,26=3,38=1,57=2/1,3;
 2/9=110,12=2,17=6,18=5,40=1/2;
 3/5=16,6=1,7=10,11=2,16=1,25=1,30=1,71=1,74=-5,124=31/1,2,3;
 4//1;
 5/5=2,38=5/2;
 6/7=2,8=2,9=2,10=2,28=1/1;
 7//1,2,3,16;
 1/14=-1,18=20,19=15,26=3/3(2);
 2/9=110/2;
 99//99;
 2/9=110/2;
 3/5=16,6=1,7=10,11=2,16=1,25=1,30=1,71=1,74=-5,124=31/1,2,3;
 4/5=5,16=3,69=1/1;
 5/5=2,38=5/2;
 7//1,2,3,16;
 1/14=-1,18=20,19=15,26=3/3(-5);
 2/9=110/2;
 6/7=2,8=2,9=2,10=2,19=2,28=1/1;
 99/9=1/99;
 -------------------
 Title Card Required
 -------------------
 Symbolic Z-matrix:
 Charge =  0 Multiplicity = 1
 C                    -0.80463   0.61477  -0.01695 
 C                    -0.54282  -0.74191  -0.02687 
 C                     0.77502  -1.15798  -0.01259 
 C                     1.80876  -0.23398   0.00907 
 C                     1.54063   1.12205   0.0177 
 C                     0.22373   1.54198   0.00396 
 H                    -1.35751  -1.44982  -0.04265 
 H                     2.34432   1.83936   0.03404 
 F                     3.07257  -0.66161   0.02227 
 F                     1.06311  -2.46048  -0.01946 
 F                    -2.07448   1.05346  -0.03145 
 F                    -0.06243   2.84562   0.01161 
 O                    -3.65468  -1.50398  -0.0433 
 H                    -4.13008  -1.67245   0.77125 
 H                    -3.61249  -0.5476   -0.10884 
 
 Add virtual bond connecting atoms O13        and H7         Dist= 4.34D+00.
 Add virtual bond connecting atoms H15        and F11        Dist= 4.20D+00.

 GradGradGradGradGradGradGradGradGradGradGradGradGradGradGradGradGradGrad
 Berny optimization.
 Initialization pass.
                           ----------------------------
                           !    Initial Parameters    !
                           ! (Angstroms and Degrees)  !
 --------------------------                            --------------------------
 ! Name  Definition              Value          Derivative Info.                !
 --------------------------------------------------------------------------------
 ! R1    R(1,2)                  1.3817         estimate D2E/DX2                !
 ! R2    R(1,6)                  1.3848         estimate D2E/DX2                !
 ! R3    R(1,11)                 1.3436         estimate D2E/DX2                !
 ! R4    R(2,3)                  1.382          estimate D2E/DX2                !
 ! R5    R(2,7)                  1.0794         estimate D2E/DX2                !
 ! R6    R(3,4)                  1.3867         estimate D2E/DX2                !
 ! R7    R(3,10)                 1.334          estimate D2E/DX2                !
 ! R8    R(4,5)                  1.3823         estimate D2E/DX2                !
 ! R9    R(4,9)                  1.3343         estimate D2E/DX2                !
 ! R10   R(5,6)                  1.3823         estimate D2E/DX2                !
 ! R11   R(5,8)                  1.0774         estimate D2E/DX2                !
 ! R12   R(6,12)                 1.3347         estimate D2E/DX2                !
 ! R13   R(7,13)                 2.2978         estimate D2E/DX2                !
 ! R14   R(11,15)                2.2215         estimate D2E/DX2                !
 ! R15   R(13,14)                0.9581         estimate D2E/DX2                !
 ! R16   R(13,15)                0.9596         estimate D2E/DX2                !
 ! A1    A(2,1,6)              121.1184         estimate D2E/DX2                !
 ! A2    A(2,1,11)             119.9734         estimate D2E/DX2                !
 ! A3    A(6,1,11)             118.9079         estimate D2E/DX2                !
 ! A4    A(1,2,3)              118.4375         estimate D2E/DX2                !
 ! A5    A(1,2,7)              120.068          estimate D2E/DX2                !
 ! A6    A(3,2,7)              121.4943         estimate D2E/DX2                !
 ! A7    A(2,3,4)              120.6912         estimate D2E/DX2                !
 ! A8    A(2,3,10)             119.988          estimate D2E/DX2                !
 ! A9    A(4,3,10)             119.3208         estimate D2E/DX2                !
 ! A10   A(3,4,5)              120.6083         estimate D2E/DX2                !
 ! A11   A(3,4,9)              119.5187         estimate D2E/DX2                !
 ! A12   A(5,4,9)              119.8729         estimate D2E/DX2                !
 ! A13   A(4,5,6)              118.8651         estimate D2E/DX2                !
 ! A14   A(4,5,8)              120.5663         estimate D2E/DX2                !
 ! A15   A(6,5,8)              120.5686         estimate D2E/DX2                !
 ! A16   A(1,6,5)              120.2794         estimate D2E/DX2                !
 ! A17   A(1,6,12)             119.6598         estimate D2E/DX2                !
 ! A18   A(5,6,12)             120.0608         estimate D2E/DX2                !
 ! A19   A(2,7,13)             140.3552         estimate D2E/DX2                !
 ! A20   A(1,11,15)            114.7971         estimate D2E/DX2                !
 ! A21   A(7,13,14)            119.999          estimate D2E/DX2                !
 ! A22   A(7,13,15)             86.1337         estimate D2E/DX2                !
 ! A23   A(14,13,15)           104.7819         estimate D2E/DX2                !
 ! A24   A(11,15,13)           138.2799         estimate D2E/DX2                !
 ! D1    D(6,1,2,3)              0.1345         estimate D2E/DX2                !
 ! D2    D(6,1,2,7)            179.9674         estimate D2E/DX2                !
 ! D3    D(11,1,2,3)           179.945          estimate D2E/DX2                !
 ! D4    D(11,1,2,7)            -0.2221         estimate D2E/DX2                !
 ! D5    D(2,1,6,5)             -0.1128         estimate D2E/DX2                !
 ! D6    D(2,1,6,12)           179.9265         estimate D2E/DX2                !
 ! D7    D(11,1,6,5)          -179.9253         estimate D2E/DX2                !
 ! D8    D(11,1,6,12)            0.114          estimate D2E/DX2                !
 ! D9    D(2,1,11,15)           -1.0814         estimate D2E/DX2                !
 ! D10   D(6,1,11,15)          178.7333         estimate D2E/DX2                !
 ! D11   D(1,2,3,4)             -0.0999         estimate D2E/DX2                !
 ! D12   D(1,2,3,10)           179.8935         estimate D2E/DX2                !
 ! D13   D(7,2,3,4)           -179.9303         estimate D2E/DX2                !
 ! D14   D(7,2,3,10)             0.063          estimate D2E/DX2                !
 ! D15   D(1,2,7,13)            -0.9946         estimate D2E/DX2                !
 ! D16   D(3,2,7,13)           178.8331         estimate D2E/DX2                !
 ! D17   D(2,3,4,5)              0.044          estimate D2E/DX2                !
 ! D18   D(2,3,4,9)           -179.9875         estimate D2E/DX2                !
 ! D19   D(10,3,4,5)          -179.9494         estimate D2E/DX2                !
 ! D20   D(10,3,4,9)             0.0191         estimate D2E/DX2                !
 ! D21   D(3,4,5,6)             -0.0194         estimate D2E/DX2                !
 ! D22   D(3,4,5,8)           -179.9704         estimate D2E/DX2                !
 ! D23   D(9,4,5,6)           -179.9878         estimate D2E/DX2                !
 ! D24   D(9,4,5,8)              0.0612         estimate D2E/DX2                !
 ! D25   D(4,5,6,1)              0.053          estimate D2E/DX2                !
 ! D26   D(4,5,6,12)          -179.9864         estimate D2E/DX2                !
 ! D27   D(8,5,6,1)           -179.996          estimate D2E/DX2                !
 ! D28   D(8,5,6,12)            -0.0354         estimate D2E/DX2                !
 ! D29   D(2,7,13,14)          -99.6291         estimate D2E/DX2                !
 ! D30   D(2,7,13,15)            5.2194         estimate D2E/DX2                !
 ! D31   D(1,11,15,13)           8.3922         estimate D2E/DX2                !
 ! D32   D(7,13,15,11)          -7.1449         estimate D2E/DX2                !
 ! D33   D(14,13,15,11)        112.8845         estimate D2E/DX2                !
 --------------------------------------------------------------------------------
 Trust Radius=3.00D-01 FncErr=1.00D-07 GrdErr=1.00D-06
 Number of steps in this run=     83 maximum allowed number of steps=    100.
 GradGradGradGradGradGradGradGradGradGradGradGradGradGradGradGradGradGrad

                          Input orientation:                          
 ---------------------------------------------------------------------
 Center     Atomic      Atomic             Coordinates (Angstroms)
 Number     Number       Type             X           Y           Z
 ---------------------------------------------------------------------
      1          6           0       -0.804633    0.614768   -0.016947
      2          6           0       -0.542816   -0.741913   -0.026873
      3          6           0        0.775022   -1.157980   -0.012588
      4          6           0        1.808763   -0.233979    0.009065
      5          6           0        1.540631    1.122046    0.017695
      6          6           0        0.223732    1.541975    0.003960
      7          1           0       -1.357509   -1.449824   -0.042649
      8          1           0        2.344321    1.839357    0.034040
      9          9           0        3.072568   -0.661611    0.022271
     10          9           0        1.063106   -2.460479   -0.019455
     11          9           0       -2.074475    1.053460   -0.031451
     12          9           0       -0.062426    2.845617    0.011605
     13          8           0       -3.654675   -1.503984   -0.043300
     14          1           0       -4.130081   -1.672445    0.771245
     15          1           0       -3.612486   -0.547597   -0.108837
 ---------------------------------------------------------------------
                    Distance matrix (angstroms):
                    1          2          3          4          5
     1  C    0.000000
     2  C    1.381749   0.000000
     3  C    2.374440   1.382032   0.000000
     4  C    2.747888   2.406078   1.386675   0.000000
     5  C    2.399749   2.795904   2.405326   1.382307   0.000000
     6  C    1.384805   2.409293   2.755713   2.380412   1.382300
     7  H    2.137492   1.079403   2.152618   3.392084   3.875225
     8  H    3.379072   3.873271   3.383623   2.141534   1.077367
     9  F    4.082079   3.616610   2.350812   1.334259   2.351230
    10  F    3.597999   2.352129   1.333995   2.348216   3.614401
    11  F    1.343562   2.359950   3.607001   4.091293   3.616091
    12  F    2.351249   3.619755   4.090317   3.603507   2.353832
    13  O    3.551414   3.203855   4.443296   5.609350   5.821594
    14  H    4.112322   3.790957   4.993907   6.157919   6.366631
    15  H    3.040325   3.076906   4.430808   5.431593   5.418333
                    6          7          8          9         10
     6  C    0.000000
     7  H    3.384281   0.000000
     8  H    2.141551   4.952589   0.000000
     9  F    3.601665   4.500120   2.604865   0.000000
    10  F    4.089589   2.623231   4.486977   2.697333   0.000000
    11  F    2.349820   2.603958   4.488617   5.425533   4.710873
    12  F    1.334701   4.486758   2.608734   4.704142   5.424246
    13  O    4.931748   2.297804   6.868178   6.780095   4.813825
    14  H    5.465977   2.898127   7.402304   7.311696   5.311817
    15  H    4.369852   2.429674   6.418840   6.687312   5.052551
                   11         12         13         14         15
    11  F    0.000000
    12  F    2.694814   0.000000
    13  O    3.006275   5.641480   0.000000
    14  H    3.507192   6.126643   0.958057   0.000000
    15  H    2.221452   4.912365   0.959558   1.519122   0.000000
 Stoichiometry    C6H4F4O
 Framework group  C1[X(C6H4F4O)]
 Deg. of freedom    39
 Full point group                 C1      NOp   1
 Largest Abelian subgroup         C1      NOp   1
 Largest concise Abelian subgroup C1      NOp   1
                         Standard orientation:                         
 ---------------------------------------------------------------------
 Center     Atomic      Atomic             Coordinates (Angstroms)
 Number     Number       Type             X           Y           Z
 ---------------------------------------------------------------------
      1          6           0       -0.804633    0.614768   -0.016947
      2          6           0       -0.542816   -0.741913   -0.026873
      3          6           0        0.775022   -1.157980   -0.012588
      4          6           0        1.808763   -0.233979    0.009065
      5          6           0        1.540631    1.122046    0.017695
      6          6           0        0.223732    1.541975    0.003960
      7          1           0       -1.357509   -1.449824   -0.042649
      8          1           0        2.344321    1.839357    0.034040
      9          9           0        3.072568   -0.661611    0.022271
     10          9           0        1.063106   -2.460479   -0.019455
     11          9           0       -2.074475    1.053460   -0.031451
     12          9           0       -0.062426    2.845617    0.011605
     13          8           0       -3.654675   -1.503984   -0.043300
     14          1           0       -4.130081   -1.672445    0.771245
     15          1           0       -3.612486   -0.547597   -0.108837
 ---------------------------------------------------------------------
 Rotational constants (GHZ):      1.2239977      0.8105439      0.4882733
 Standard basis: Aug-CC-pVTZ (5D, 7F)
 There are   705 symmetry adapted cartesian basis functions of A   symmetry.
 There are   598 symmetry adapted basis functions of A   symmetry.
   598 basis functions,   900 primitive gaussians,   705 cartesian basis functions
    42 alpha electrons       42 beta electrons
       nuclear repulsion energy       616.6320860123 Hartrees.
 NAtoms=   15 NActive=   15 NUniq=   15 SFac= 1.00D+00 NAtFMM=   60 NAOKFM=F Big=F
 Integral buffers will be    131072 words long.
 Raffenetti 2 integral format.
 Two-electron integral symmetry is turned on.
 Nuclear repulsion after empirical dispersion term =      616.6219642683 Hartrees.
 One-electron integrals computed using PRISM.
 NBasis=   598 RedAO= T EigKep=  1.55D-06  NBF=   598
 NBsUse=   597 1.00D-06 EigRej=  9.46D-07 NBFU=   597
 ExpMin= 2.53D-02 ExpMax= 1.95D+04 ExpMxC= 6.65D+02 IAcc=3 IRadAn=         5 AccDes= 0.00D+00
 Harris functional with IExCor=  402 and IRadAn=       5 diagonalized for initial guess.
 HarFok:  IExCor=  402 AccDes= 0.00D+00 IRadAn=         5 IDoV= 1 UseB2=F ITyADJ=14
 ICtDFT=  3500011 ScaDFX=  1.000000  1.000000  1.000000  1.000000
 FoFCou: FMM=F IPFlag=           0 FMFlag=      100000 FMFlg1=           0
         NFxFlg=           0 DoJE=T BraDBF=F KetDBF=T FulRan=T
         wScrn=  0.000000 ICntrl=     500 IOpCl=  0 I1Cent=   200000004 NGrid=           0
         NMat0=    1 NMatS0=      1 NMatT0=    0 NMatD0=    1 NMtDS0=    0 NMtDT0=    0
 Petite list used in FoFCou.
 Requested convergence on RMS density matrix=1.00D-08 within 128 cycles.
 Requested convergence on MAX density matrix=1.00D-06.
 Requested convergence on             energy=1.00D-06.
 No special actions if energy rises.
 SCF Done:  E(RB3LYP) =  -705.904964705     A.U. after   12 cycles
            NFock= 12  Conv=0.40D-08     -V/T= 2.0053

 **********************************************************************

            Population analysis using the SCF density.

 **********************************************************************

 Orbital symmetries:
       Occupied  (A) (A) (A) (A) (A) (A) (A) (A) (A) (A) (A) (A)
                 (A) (A) (A) (A) (A) (A) (A) (A) (A) (A) (A) (A)
                 (A) (A) (A) (A) (A) (A) (A) (A) (A) (A) (A) (A)
                 (A) (A) (A) (A) (A) (A)
       Virtual   (A) (A) (A) (A) (A) (A) (A) (A) (A) (A) (A) (A)
                 (A) (A) (A) (A) (A) (A) (A) (A) (A) (A) (A) (A)
                 (A) (A) (A) (A) (A) (A) (A) (A) (A) (A) (A) (A)
                 (A) (A) (A) (A) (A) (A) (A) (A) (A) (A) (A) (A)
                 (A) (A) (A) (A) (A) (A) (A) (A) (A) (A) (A) (A)
                 (A) (A) (A) (A) (A) (A) (A) (A) (A) (A) (A) (A)
                 (A) (A) (A) (A) (A) (A) (A) (A) (A) (A) (A) (A)
                 (A) (A) (A) (A) (A) (A) (A) (A) (A) (A) (A) (A)
                 (A) (A) (A) (A) (A) (A) (A) (A) (A) (A) (A) (A)
                 (A) (A) (A) (A) (A) (A) (A) (A) (A) (A) (A) (A)
                 (A) (A) (A) (A) (A) (A) (A) (A) (A) (A) (A) (A)
                 (A) (A) (A) (A) (A) (A) (A) (A) (A) (A) (A) (A)
                 (A) (A) (A) (A) (A) (A) (A) (A) (A) (A) (A) (A)
                 (A) (A) (A) (A) (A) (A) (A) (A) (A) (A) (A) (A)
                 (A) (A) (A) (A) (A) (A) (A) (A) (A) (A) (A) (A)
                 (A) (A) (A) (A) (A) (A) (A) (A) (A) (A) (A) (A)
                 (A) (A) (A) (A) (A) (A) (A) (A) (A) (A) (A) (A)
                 (A) (A) (A) (A) (A) (A) (A) (A) (A) (A) (A) (A)
                 (A) (A) (A) (A) (A) (A) (A) (A) (A) (A) (A) (A)
                 (A) (A) (A) (A) (A) (A) (A) (A) (A) (A) (A) (A)
                 (A) (A) (A) (A) (A) (A) (A) (A) (A) (A) (A) (A)
                 (A) (A) (A) (A) (A) (A) (A) (A) (A) (A) (A) (A)
                 (A) (A) (A) (A) (A) (A) (A) (A) (A) (A) (A) (A)
                 (A) (A) (A) (A) (A) (A) (A) (A) (A) (A) (A) (A)
                 (A) (A) (A) (A) (A) (A) (A) (A) (A) (A) (A) (A)
                 (A) (A) (A) (A) (A) (A) (A) (A) (A) (A) (A) (A)
                 (A) (A) (A) (A) (A) (A) (A) (A) (A) (A) (A) (A)
                 (A) (A) (A) (A) (A) (A) (A) (A) (A) (A) (A) (A)
                 (A) (A) (A) (A) (A) (A) (A) (A) (A) (A) (A) (A)
                 (A) (A) (A) (A) (A) (A) (A) (A) (A) (A) (A) (A)
                 (A) (A) (A) (A) (A) (A) (A) (A) (A) (A) (A) (A)
                 (A) (A) (A) (A) (A) (A) (A) (A) (A) (A) (A) (A)
                 (A) (A) (A) (A) (A) (A) (A) (A) (A) (A) (A) (A)
                 (A) (A) (A) (A) (A) (A) (A) (A) (A) (A) (A) (A)
                 (A) (A) (A) (A) (A) (A) (A) (A) (A) (A) (A) (A)
                 (A) (A) (A) (A) (A) (A) (A) (A) (A) (A) (A) (A)
                 (A) (A) (A) (A) (A) (A) (A) (A) (A) (A) (A) (A)
                 (A) (A) (A) (A) (A) (A) (A) (A) (A) (A) (A) (A)
                 (A) (A) (A) (A) (A) (A) (A) (A) (A) (A) (A) (A)
                 (A) (A) (A) (A) (A) (A) (A) (A) (A) (A) (A) (A)
                 (A) (A) (A) (A) (A) (A) (A) (A) (A) (A) (A) (A)
                 (A) (A) (A) (A) (A) (A) (A) (A) (A) (A) (A) (A)
                 (A) (A) (A) (A) (A) (A) (A) (A) (A) (A) (A) (A)
                 (A) (A) (A) (A) (A) (A) (A) (A) (A) (A) (A) (A)
                 (A) (A) (A) (A) (A) (A) (A) (A) (A) (A) (A) (A)
                 (A) (A) (A) (A) (A) (A) (A) (A) (A) (A) (A) (A)
                 (A) (A) (A)
 The electronic state is 1-A.
 Alpha  occ. eigenvalues --  -24.73274 -24.72703 -24.72519 -24.72285 -19.14681
 Alpha  occ. eigenvalues --  -10.29488 -10.29398 -10.29372 -10.29197 -10.21959
 Alpha  occ. eigenvalues --  -10.21489  -1.27136  -1.26681  -1.25742  -1.25298
 Alpha  occ. eigenvalues --   -1.03111  -0.90835  -0.79925  -0.78472  -0.68446
 Alpha  occ. eigenvalues --   -0.66326  -0.60457  -0.58836  -0.58691  -0.55662
 Alpha  occ. eigenvalues --   -0.54857  -0.52633  -0.51553  -0.50916  -0.49185
 Alpha  occ. eigenvalues --   -0.48758  -0.48216  -0.48036  -0.45541  -0.42860
 Alpha  occ. eigenvalues --   -0.40908  -0.40455  -0.39924  -0.37570  -0.33239
 Alpha  occ. eigenvalues --   -0.29021  -0.26538
 Alpha virt. eigenvalues --   -0.04874  -0.02582  -0.02222  -0.01096   0.00447
 Alpha virt. eigenvalues --    0.00494   0.02669   0.02860   0.04016   0.04538
 Alpha virt. eigenvalues --    0.05525   0.06271   0.06455   0.06552   0.07161
 Alpha virt. eigenvalues --    0.07475   0.07716   0.08370   0.09221   0.09805
 Alpha virt. eigenvalues --    0.10125   0.10206   0.10492   0.11269   0.11561
 Alpha virt. eigenvalues --    0.12311   0.12722   0.13851   0.14100   0.14962
 Alpha virt. eigenvalues --    0.15303   0.16088   0.16581   0.17680   0.17705
 Alpha virt. eigenvalues --    0.18276   0.19034   0.19900   0.20155   0.20820
 Alpha virt. eigenvalues --    0.21114   0.21686   0.22182   0.22437   0.22626
 Alpha virt. eigenvalues --    0.23018   0.23382   0.23755   0.23964   0.24656
 Alpha virt. eigenvalues --    0.25196   0.25637   0.25957   0.26157   0.27251
 Alpha virt. eigenvalues --    0.27454   0.28025   0.29009   0.29227   0.29443
 Alpha virt. eigenvalues --    0.29906   0.30667   0.30963   0.31326   0.32425
 Alpha virt. eigenvalues --    0.32895   0.33163   0.33701   0.33866   0.34589
 Alpha virt. eigenvalues --    0.34996   0.35939   0.36175   0.37178   0.38219
 Alpha virt. eigenvalues --    0.38615   0.39630   0.39868   0.41424   0.41982
 Alpha virt. eigenvalues --    0.42724   0.44310   0.45022   0.45337   0.45549
 Alpha virt. eigenvalues --    0.45975   0.46878   0.47347   0.47863   0.48627
 Alpha virt. eigenvalues --    0.50455   0.51475   0.51959   0.52042   0.52468
 Alpha virt. eigenvalues --    0.52941   0.53645   0.54260   0.55189   0.56893
 Alpha virt. eigenvalues --    0.57269   0.57774   0.59149   0.59675   0.61476
 Alpha virt. eigenvalues --    0.61865   0.62164   0.63240   0.63534   0.64854
 Alpha virt. eigenvalues --    0.65338   0.65957   0.66766   0.67122   0.67615
 Alpha virt. eigenvalues --    0.68276   0.68570   0.69793   0.70385   0.71452
 Alpha virt. eigenvalues --    0.72500   0.73231   0.73706   0.74452   0.75606
 Alpha virt. eigenvalues --    0.75989   0.77333   0.77976   0.78669   0.78981
 Alpha virt. eigenvalues --    0.79618   0.80640   0.80934   0.81465   0.81924
 Alpha virt. eigenvalues --    0.83358   0.83689   0.84251   0.84636   0.84643
 Alpha virt. eigenvalues --    0.85536   0.85952   0.86951   0.87678   0.88263
 Alpha virt. eigenvalues --    0.88917   0.90548   0.90909   0.91404   0.91866
 Alpha virt. eigenvalues --    0.92528   0.93261   0.94416   0.94575   0.95531
 Alpha virt. eigenvalues --    0.95809   0.96773   0.97341   0.97706   0.98714
 Alpha virt. eigenvalues --    0.99650   1.01002   1.02157   1.02286   1.03222
 Alpha virt. eigenvalues --    1.04389   1.05397   1.06318   1.06623   1.07891
 Alpha virt. eigenvalues --    1.08811   1.09511   1.09870   1.11016   1.11964
 Alpha virt. eigenvalues --    1.12601   1.12881   1.13987   1.14622   1.15600
 Alpha virt. eigenvalues --    1.16732   1.17590   1.18447   1.18946   1.20039
 Alpha virt. eigenvalues --    1.20836   1.21199   1.22075   1.22539   1.22829
 Alpha virt. eigenvalues --    1.24060   1.24134   1.25854   1.26152   1.27604
 Alpha virt. eigenvalues --    1.28473   1.31453   1.32821   1.33378   1.34475
 Alpha virt. eigenvalues --    1.36396   1.37440   1.38681   1.39084   1.39455
 Alpha virt. eigenvalues --    1.40383   1.41502   1.42702   1.43525   1.44726
 Alpha virt. eigenvalues --    1.47263   1.48277   1.49085   1.49902   1.50817
 Alpha virt. eigenvalues --    1.51725   1.52816   1.54350   1.56105   1.56342
 Alpha virt. eigenvalues --    1.58795   1.59496   1.60524   1.60843   1.60947
 Alpha virt. eigenvalues --    1.61208   1.61931   1.62635   1.63147   1.65216
 Alpha virt. eigenvalues --    1.65987   1.68403   1.69535   1.72498   1.72821
 Alpha virt. eigenvalues --    1.74196   1.74537   1.76349   1.78094   1.78944
 Alpha virt. eigenvalues --    1.79338   1.81223   1.82317   1.83973   1.84372
 Alpha virt. eigenvalues --    1.84883   1.86726   1.87543   1.88175   1.91336
 Alpha virt. eigenvalues --    1.92331   1.93427   1.94660   1.96369   1.96683
 Alpha virt. eigenvalues --    1.97985   2.01863   2.02418   2.05492   2.05654
 Alpha virt. eigenvalues --    2.08508   2.09994   2.10212   2.11520   2.14137
 Alpha virt. eigenvalues --    2.15358   2.16528   2.18648   2.21190   2.24080
 Alpha virt. eigenvalues --    2.25302   2.26585   2.27332   2.29277   2.30685
 Alpha virt. eigenvalues --    2.33523   2.34784   2.35570   2.39256   2.40415
 Alpha virt. eigenvalues --    2.42174   2.44258   2.48380   2.50973   2.52189
 Alpha virt. eigenvalues --    2.54754   2.55045   2.58622   2.59714   2.59858
 Alpha virt. eigenvalues --    2.60970   2.62737   2.62952   2.63899   2.64472
 Alpha virt. eigenvalues --    2.67398   2.68257   2.69729   2.70429   2.71162
 Alpha virt. eigenvalues --    2.72137   2.73678   2.74006   2.74758   2.75447
 Alpha virt. eigenvalues --    2.76068   2.76433   2.78181   2.79191   2.80724
 Alpha virt. eigenvalues --    2.81495   2.81931   2.84967   2.86540   2.87863
 Alpha virt. eigenvalues --    2.88239   2.88588   2.91689   2.92679   2.92752
 Alpha virt. eigenvalues --    2.93789   2.94777   3.00038   3.00255   3.01209
 Alpha virt. eigenvalues --    3.03944   3.05306   3.05538   3.07503   3.08395
 Alpha virt. eigenvalues --    3.10385   3.11635   3.12141   3.14807   3.15953
 Alpha virt. eigenvalues --    3.16781   3.18332   3.18474   3.20250   3.21099
 Alpha virt. eigenvalues --    3.21827   3.23063   3.23963   3.24572   3.27976
 Alpha virt. eigenvalues --    3.28880   3.30308   3.30983   3.31859   3.35461
 Alpha virt. eigenvalues --    3.35994   3.36560   3.36827   3.39307   3.40403
 Alpha virt. eigenvalues --    3.42018   3.42085   3.44062   3.44921   3.45229
 Alpha virt. eigenvalues --    3.45627   3.46068   3.46413   3.47635   3.48247
 Alpha virt. eigenvalues --    3.52630   3.53136   3.54126   3.55403   3.55737
 Alpha virt. eigenvalues --    3.57037   3.59292   3.60683   3.62054   3.62900
 Alpha virt. eigenvalues --    3.63972   3.66169   3.66703   3.69140   3.71295
 Alpha virt. eigenvalues --    3.71439   3.71700   3.75620   3.76872   3.78276
 Alpha virt. eigenvalues --    3.80010   3.81239   3.83491   3.85642   3.87448
 Alpha virt. eigenvalues --    3.90153   3.91992   3.92426   3.93053   3.93407
 Alpha virt. eigenvalues --    3.96092   3.97856   3.98597   3.99603   4.01240
 Alpha virt. eigenvalues --    4.03747   4.05320   4.06548   4.07726   4.08653
 Alpha virt. eigenvalues --    4.11123   4.12769   4.14764   4.15080   4.16010
 Alpha virt. eigenvalues --    4.16466   4.17605   4.18071   4.21045   4.23009
 Alpha virt. eigenvalues --    4.24827   4.27541   4.30666   4.31313   4.32605
 Alpha virt. eigenvalues --    4.33853   4.36377   4.37768   4.39754   4.42531
 Alpha virt. eigenvalues --    4.43000   4.46328   4.47649   4.48136   4.53125
 Alpha virt. eigenvalues --    4.55892   4.56941   4.57983   4.62096   4.63566
 Alpha virt. eigenvalues --    4.66999   4.68373   4.70137   4.70703   4.78707
 Alpha virt. eigenvalues --    4.79397   4.81762   4.84852   4.86581   4.87740
 Alpha virt. eigenvalues --    4.89493   4.92504   4.93766   4.94828   4.95650
 Alpha virt. eigenvalues --    4.97397   4.99034   5.00888   5.07159   5.08374
 Alpha virt. eigenvalues --    5.09192   5.09703   5.15971   5.18398   5.22100
 Alpha virt. eigenvalues --    5.34667   5.37776   5.40370   5.46627   5.49773
 Alpha virt. eigenvalues --    5.52864   5.56654   5.62123   5.62639   5.65909
 Alpha virt. eigenvalues --    5.74344   5.85360   5.88207   5.91759   5.99967
 Alpha virt. eigenvalues --    6.09702   6.13211   6.33355   6.35056   6.45551
 Alpha virt. eigenvalues --    6.52356   6.58349   6.70540   6.74597   6.76918
 Alpha virt. eigenvalues --    6.82839   6.85401   6.86450   6.88143   6.91458
 Alpha virt. eigenvalues --    6.94698   7.11289   7.22629   7.42706   7.51125
 Alpha virt. eigenvalues --    8.36929   8.37763   8.38203   8.39445   8.42648
 Alpha virt. eigenvalues --    8.43739   8.44192   8.45637   8.48982   8.62103
 Alpha virt. eigenvalues --    8.64130   8.65262   8.68352   8.70178   8.70992
 Alpha virt. eigenvalues --    8.73397   8.73759   8.74223   8.75606   8.77237
 Alpha virt. eigenvalues --    8.78482   8.79238   8.80414   8.80839   8.83476
 Alpha virt. eigenvalues --    8.87376   8.88619   8.90129   8.91006   8.91944
 Alpha virt. eigenvalues --    8.92845   8.94204   8.96085   8.96836   8.98215
 Alpha virt. eigenvalues --    9.02540   9.03703   9.09313   9.09792   9.14086
 Alpha virt. eigenvalues --    9.14639   9.25265   9.27213   9.30099   9.31585
 Alpha virt. eigenvalues --    9.37847   9.39838   9.46702   9.55020  14.39995
 Alpha virt. eigenvalues --   14.47658  15.33702  15.46517  15.59292  16.19053
 Alpha virt. eigenvalues --   16.50936  17.42440  18.43238  19.24125  19.91900
          Condensed to atoms (all electrons):
               1          2          3          4          5          6
     1  C    7.000188   0.320616  -0.245522  -0.632530  -0.476436  -0.313450
     2  C    0.320616   7.450219   0.328766  -0.358037  -0.699109  -0.476876
     3  C   -0.245522   0.328766   7.195123  -0.160309  -0.429442  -0.550391
     4  C   -0.632530  -0.358037  -0.160309   7.099592   0.387816  -0.146452
     5  C   -0.476436  -0.699109  -0.429442   0.387816   7.213302   0.462959
     6  C   -0.313450  -0.476876  -0.550391  -0.146452   0.462959   7.226036
     7  H   -0.411999   0.104382  -0.510257  -0.022638  -0.006628   0.000194
     8  H    0.083097  -0.055252   0.085095  -0.486538   0.182683  -0.415587
     9  F   -0.008885   0.036657  -0.148943  -0.164210   0.035902   0.110223
    10  F    0.101595   0.106414  -0.206633  -0.114336   0.004080  -0.003764
    11  F   -0.135700   0.002853   0.094525  -0.003924   0.010948  -0.152793
    12  F   -0.068892   0.027162  -0.009447   0.102361   0.005056  -0.203996
    13  O    0.016823   0.020367   0.030475   0.004130  -0.002385  -0.013020
    14  H    0.011839  -0.001323  -0.008008  -0.000809   0.000365   0.003341
    15  H    0.018236  -0.006210  -0.004406  -0.000505   0.001308   0.002761
               7          8          9         10         11         12
     1  C   -0.411999   0.083097  -0.008885   0.101595  -0.135700  -0.068892
     2  C    0.104382  -0.055252   0.036657   0.106414   0.002853   0.027162
     3  C   -0.510257   0.085095  -0.148943  -0.206633   0.094525  -0.009447
     4  C   -0.022638  -0.486538  -0.164210  -0.114336  -0.003924   0.102361
     5  C   -0.006628   0.182683   0.035902   0.004080   0.010948   0.005056
     6  C    0.000194  -0.415587   0.110223  -0.003764  -0.152793  -0.203996
     7  H    1.380548   0.003472  -0.005331   0.004873   0.003958  -0.005737
     8  H    0.003472   1.197315   0.016217  -0.008911  -0.008692   0.024450
     9  F   -0.005331   0.016217   9.474582   0.067361   0.002485  -0.005928
    10  F    0.004873  -0.008911   0.067361   9.492474  -0.005621   0.002147
    11  F    0.003958  -0.008692   0.002485  -0.005621   9.619040   0.054266
    12  F   -0.005737   0.024450  -0.005928   0.002147   0.054266   9.489655
    13  O   -0.129606  -0.000094   0.000076   0.000935   0.011701   0.000056
    14  H   -0.002076  -0.000014  -0.000001   0.000066  -0.000237  -0.000065
    15  H   -0.016089  -0.000097  -0.000032   0.000484  -0.023812   0.000656
              13         14         15
     1  C    0.016823   0.011839   0.018236
     2  C    0.020367  -0.001323  -0.006210
     3  C    0.030475  -0.008008  -0.004406
     4  C    0.004130  -0.000809  -0.000505
     5  C   -0.002385   0.000365   0.001308
     6  C   -0.013020   0.003341   0.002761
     7  H   -0.129606  -0.002076  -0.016089
     8  H   -0.000094  -0.000014  -0.000097
     9  F    0.000076  -0.000001  -0.000032
    10  F    0.000935   0.000066   0.000484
    11  F    0.011701  -0.000237  -0.023812
    12  F    0.000056  -0.000065   0.000656
    13  O    8.029214   0.240695   0.208293
    14  H    0.240695   0.590694   0.022475
    15  H    0.208293   0.022475   0.542601
 Mulliken charges:
               1
     1  C    0.741020
     2  C   -0.800629
     3  C    0.539374
     4  C    0.496389
     5  C   -0.690419
     6  C    0.470816
     7  H    0.612936
     8  H    0.382855
     9  F   -0.410174
    10  F   -0.441163
    11  F   -0.468998
    12  F   -0.411743
    13  O   -0.417660
    14  H    0.143060
    15  H    0.254338
 Sum of Mulliken charges =   0.00000
 Mulliken charges with hydrogens summed into heavy atoms:
               1
     1  C    0.741020
     2  C   -0.187694
     3  C    0.539374
     4  C    0.496389
     5  C   -0.307564
     6  C    0.470816
     9  F   -0.410174
    10  F   -0.441163
    11  F   -0.468998
    12  F   -0.411743
    13  O   -0.020262
 Electronic spatial extent (au):  <R**2>=           2015.5723
 Charge=              0.0000 electrons
 Dipole moment (field-independent basis, Debye):
    X=             -0.7607    Y=              0.9894    Z=              1.1693  Tot=              1.7102
 Quadrupole moment (field-independent basis, Debye-Ang):
   XX=            -58.1569   YY=            -66.8675   ZZ=            -59.4246
   XY=              4.2467   XZ=             -5.3972   YZ=             -2.4501
 Traceless Quadrupole moment (field-independent basis, Debye-Ang):
   XX=              3.3261   YY=             -5.3845   ZZ=              2.0584
   XY=              4.2467   XZ=             -5.3972   YZ=             -2.4501
 Octapole moment (field-independent basis, Debye-Ang**2):
  XXX=            -35.3338  YYY=             -1.7699  ZZZ=              1.2459  XYY=              4.2326
  XXY=             11.7700  XXZ=             24.0375  XZZ=             -4.9922  YZZ=             -1.9851
  YYZ=              4.7704  XYZ=             10.8698
 Hexadecapole moment (field-independent basis, Debye-Ang**3):
 XXXX=          -1238.8490 YYYY=           -879.3624 ZZZZ=            -57.9996 XXXY=              5.4629
 XXXZ=           -106.0002 YYYX=             -7.8980 YYYZ=             -9.4763 ZZZX=             -5.6505
 ZZZY=             -2.6695 XXYY=           -358.2869 XXZZ=           -213.4931 YYZZ=           -142.8027
 XXYZ=            -46.2475 YYXZ=            -20.0781 ZZXY=             -5.7661
 N-N= 6.166219642683D+02 E-N=-2.899492380539D+03  KE= 7.021574425964D+02
 Calling FoFJK, ICntrl=      2127 FMM=F ISym2X=0 I1Cent= 0 IOpClX= 0 NMat=1 NMatS=1 NMatT=0.
 ***** Axes restored to original set *****
 -------------------------------------------------------------------
 Center     Atomic                   Forces (Hartrees/Bohr)
 Number     Number              X              Y              Z
 -------------------------------------------------------------------
      1        6           0.002684781   -0.001685706   -0.000284002
      2        6           0.000098643    0.000166010    0.000125248
      3        6          -0.001576124    0.002923173   -0.000049871
      4        6          -0.002814546    0.001885737    0.000026993
      5        6           0.000062151    0.000208090   -0.000054154
      6        6           0.001591585   -0.003251422    0.000120186
      7        1          -0.000269377   -0.001008671   -0.000107715
      8        1           0.001083552    0.000969158    0.000026552
      9        9           0.005213200   -0.001617873    0.000050781
     10        9           0.001106023   -0.005423886   -0.000033283
     11        9          -0.004834614    0.001672541   -0.000110634
     12        9          -0.001083909    0.005449824    0.000027783
     13        8           0.000776013   -0.002473440   -0.001829061
     14        1          -0.002369272   -0.001754430    0.002910393
     15        1           0.000331894    0.003940894   -0.000819216
 -------------------------------------------------------------------
 Cartesian Forces:  Max     0.005449824 RMS     0.002160851

 GradGradGradGradGradGradGradGradGradGradGradGradGradGradGradGradGradGrad
 Berny optimization.
 FormGI is forming the generalized inverse of G from B-inverse, IUseBI=4.
 Internal  Forces:  Max     0.005551601 RMS     0.001597851
 Search for a local minimum.
 Step number   1 out of a maximum of   83
 All quantities printed in internal units (Hartrees-Bohrs-Radians)
 Mixed Optimization -- RFO/linear search
 Second derivative matrix not updated -- first step.
 ITU=  0
     Eigenvalues ---    0.00485   0.00942   0.01943   0.02091   0.02283
     Eigenvalues ---    0.02290   0.02297   0.02303   0.02306   0.02317
     Eigenvalues ---    0.02323   0.03009   0.04459   0.08197   0.09469
     Eigenvalues ---    0.16000   0.18915   0.20487   0.22290   0.23097
     Eigenvalues ---    0.24038   0.25000   0.25000   0.25000   0.25000
     Eigenvalues ---    0.35221   0.36314   0.43004   0.44034   0.47988
     Eigenvalues ---    0.48121   0.48569   0.48710   0.54497   0.54849
     Eigenvalues ---    0.55893   0.58409   0.58511   0.58572
 RFO step:  Lambda=-4.04408200D-04 EMin= 4.85349989D-03
 Linear search not attempted -- first point.
 Iteration  1 RMS(Cart)=  0.00929280 RMS(Int)=  0.00003795
 Iteration  2 RMS(Cart)=  0.00003511 RMS(Int)=  0.00000424
 Iteration  3 RMS(Cart)=  0.00000000 RMS(Int)=  0.00000424
 Variable       Old X    -DE/DX   Delta X   Delta X   Delta X     New X
                                 (Linear)    (Quad)   (Total)
    R1        2.61113   0.00154   0.00000   0.00335   0.00335   2.61448
    R2        2.61690   0.00266   0.00000   0.00555   0.00555   2.62246
    R3        2.53896   0.00512   0.00000   0.00965   0.00965   2.54861
    R4        2.61166   0.00169   0.00000   0.00344   0.00344   2.61510
    R5        2.03978   0.00182   0.00000   0.00436   0.00436   2.04414
    R6        2.62044   0.00278   0.00000   0.00576   0.00576   2.62619
    R7        2.52089   0.00554   0.00000   0.00945   0.00945   2.53034
    R8        2.61218   0.00167   0.00000   0.00340   0.00340   2.61558
    R9        2.52138   0.00546   0.00000   0.00932   0.00932   2.53071
   R10        2.61217   0.00157   0.00000   0.00325   0.00325   2.61542
   R11        2.03593   0.00145   0.00000   0.00400   0.00400   2.03992
   R12        2.52222   0.00555   0.00000   0.00950   0.00950   2.53172
   R13        4.34222   0.00121   0.00000   0.03137   0.03137   4.37359
   R14        4.19794   0.00017   0.00000   0.01274   0.01274   4.21068
   R15        1.81047   0.00396   0.00000   0.00707   0.00707   1.81754
   R16        1.81330   0.00420   0.00000   0.00755   0.00755   1.82085
    A1        2.11391  -0.00002   0.00000  -0.00073  -0.00074   2.11318
    A2        2.09393  -0.00037   0.00000   0.00017   0.00016   2.09409
    A3        2.07533   0.00039   0.00000   0.00058   0.00058   2.07591
    A4        2.06712   0.00012   0.00000   0.00095   0.00095   2.06808
    A5        2.09558   0.00006   0.00000  -0.00038  -0.00038   2.09520
    A6        2.12047  -0.00018   0.00000  -0.00057  -0.00057   2.11990
    A7        2.10646  -0.00012   0.00000  -0.00053  -0.00053   2.10593
    A8        2.09419  -0.00007   0.00000  -0.00025  -0.00025   2.09393
    A9        2.08254   0.00019   0.00000   0.00078   0.00078   2.08332
   A10        2.10501  -0.00004   0.00000  -0.00025  -0.00025   2.10477
   A11        2.08600   0.00018   0.00000   0.00074   0.00074   2.08674
   A12        2.09218  -0.00013   0.00000  -0.00050  -0.00050   2.09168
   A13        2.07459   0.00008   0.00000   0.00045   0.00045   2.07504
   A14        2.10428  -0.00006   0.00000  -0.00031  -0.00031   2.10397
   A15        2.10432  -0.00003   0.00000  -0.00014  -0.00014   2.10417
   A16        2.09927  -0.00003   0.00000   0.00010   0.00010   2.09937
   A17        2.08846   0.00017   0.00000   0.00056   0.00056   2.08902
   A18        2.09546  -0.00014   0.00000  -0.00067  -0.00067   2.09479
   A19        2.44966   0.00058   0.00000  -0.00045  -0.00045   2.44921
   A20        2.00359  -0.00032   0.00000   0.00368   0.00367   2.00725
   A21        2.09438   0.00054   0.00000   0.00500   0.00499   2.09937
   A22        1.50332   0.00001   0.00000  -0.00162  -0.00163   1.50169
   A23        1.82879   0.00096   0.00000   0.01193   0.01191   1.84070
   A24        2.41344   0.00002   0.00000  -0.00039  -0.00040   2.41304
    D1        0.00235  -0.00007   0.00000  -0.00215  -0.00215   0.00019
    D2        3.14102   0.00000   0.00000  -0.00082  -0.00082   3.14020
    D3        3.14063  -0.00005   0.00000   0.00137   0.00137  -3.14119
    D4       -0.00388   0.00002   0.00000   0.00270   0.00270  -0.00118
    D5       -0.00197   0.00005   0.00000   0.00204   0.00204   0.00007
    D6        3.14031   0.00002   0.00000   0.00143   0.00143  -3.14145
    D7       -3.14029   0.00003   0.00000  -0.00145  -0.00144   3.14145
    D8        0.00199   0.00000   0.00000  -0.00206  -0.00205  -0.00007
    D9       -0.01887   0.00003   0.00000  -0.00179  -0.00180  -0.02067
   D10        3.11948   0.00006   0.00000   0.00165   0.00165   3.12113
   D11       -0.00174   0.00006   0.00000   0.00134   0.00134  -0.00040
   D12        3.13973   0.00004   0.00000   0.00094   0.00094   3.14068
   D13       -3.14038  -0.00001   0.00000  -0.00002  -0.00001  -3.14039
   D14        0.00110  -0.00003   0.00000  -0.00041  -0.00041   0.00069
   D15       -0.01736  -0.00027   0.00000   0.00148   0.00148  -0.01588
   D16        3.12123  -0.00020   0.00000   0.00286   0.00285   3.12408
   D17        0.00077  -0.00002   0.00000  -0.00041  -0.00041   0.00036
   D18       -3.14137  -0.00002   0.00000  -0.00024  -0.00024   3.14157
   D19       -3.14071   0.00000   0.00000  -0.00002  -0.00002  -3.14073
   D20        0.00033   0.00000   0.00000   0.00015   0.00016   0.00049
   D21       -0.00034   0.00000   0.00000   0.00025   0.00025  -0.00009
   D22       -3.14108   0.00000   0.00000  -0.00033  -0.00033  -3.14141
   D23       -3.14138  -0.00001   0.00000   0.00008   0.00008  -3.14130
   D24        0.00107  -0.00001   0.00000  -0.00051  -0.00051   0.00056
   D25        0.00093  -0.00001   0.00000  -0.00105  -0.00105  -0.00012
   D26       -3.14136   0.00002   0.00000  -0.00043  -0.00043   3.14140
   D27       -3.14152  -0.00001   0.00000  -0.00046  -0.00046   3.14120
   D28       -0.00062   0.00001   0.00000   0.00015   0.00015  -0.00047
   D29       -1.73886  -0.00087   0.00000  -0.02131  -0.02132  -1.76017
   D30        0.09110   0.00030   0.00000  -0.00802  -0.00802   0.08307
   D31        0.14647   0.00010   0.00000  -0.00883  -0.00883   0.13764
   D32       -0.12470  -0.00021   0.00000   0.00948   0.00946  -0.11524
   D33        1.97021   0.00043   0.00000   0.01512   0.01513   1.98533
         Item               Value     Threshold  Converged?
 Maximum Force            0.005552     0.000450     NO 
 RMS     Force            0.001598     0.000300     NO 
 Maximum Displacement     0.041592     0.001800     NO 
 RMS     Displacement     0.009294     0.001200     NO 
 Predicted change in Energy=-2.028368D-04
 GradGradGradGradGradGradGradGradGradGradGradGradGradGradGradGradGradGrad

                          Input orientation:                          
 ---------------------------------------------------------------------
 Center     Atomic      Atomic             Coordinates (Angstroms)
 Number     Number       Type             X           Y           Z
 ---------------------------------------------------------------------
      1          6           0       -0.802898    0.616299   -0.017728
      2          6           0       -0.539976   -0.741990   -0.025578
      3          6           0        0.779452   -1.159085   -0.011976
      4          6           0        1.815333   -0.232881    0.008602
      5          6           0        1.546318    1.124809    0.016304
      6          6           0        0.227792    1.545320    0.003060
      7          1           0       -1.356278   -1.451589   -0.040526
      8          1           0        2.351523    1.843610    0.032119
      9          9           0        3.084204   -0.660947    0.021493
     10          9           0        1.067790   -2.466652   -0.018016
     11          9           0       -2.077782    1.056096   -0.030092
     12          9           0       -0.058506    2.854078    0.010372
     13          8           0       -3.670055   -1.505478   -0.043808
     14          1           0       -4.152091   -1.689331    0.767918
     15          1           0       -3.625785   -0.544849   -0.104362
 ---------------------------------------------------------------------
                    Distance matrix (angstroms):
                    1          2          3          4          5
     1  C    0.000000
     2  C    1.383523   0.000000
     3  C    2.378203   1.383851   0.000000
     4  C    2.752623   2.409947   1.389722   0.000000
     5  C    2.403863   2.799878   2.409368   1.384107   0.000000
     6  C    1.387744   2.412897   2.760137   2.383761   1.384021
     7  H    2.140773   1.081713   2.155856   3.398056   3.881510
     8  H    3.385136   3.879359   3.389621   2.144730   1.079481
     9  F    4.091754   3.625391   2.358207   1.339193   2.356702
    10  F    3.606114   2.357845   1.338996   2.355688   3.623364
    11  F    1.348668   2.366005   3.615403   4.101135   3.625049
    12  F    2.358510   3.628335   4.099774   3.611176   2.359209
    13  O    3.566960   3.221900   4.463083   5.631317   5.842308
    14  H    4.141288   3.817652   5.020907   6.189342   6.399701
    15  H    3.053598   3.093103   4.448812   5.451225   5.436264
                    6          7          8          9         10
     6  C    0.000000
     7  H    3.390079   0.000000
     8  H    2.144774   4.960988   0.000000
     9  F    3.609299   4.510747   2.609548   0.000000
    10  F    4.099020   2.628112   4.497649   2.707038   0.000000
    11  F    2.357141   2.609436   4.499199   5.440312   4.722767
    12  F    1.339727   4.497285   2.613381   4.715098   5.438706
    13  O    4.950027   2.314406   6.890686   6.807165   4.834429
    14  H    5.498304   2.920046   7.437746   7.347018   5.335642
    15  H    4.385248   2.444772   6.438290   6.712173   5.072518
                   11         12         13         14         15
    11  F    0.000000
    12  F    2.704044   0.000000
    13  O    3.016153   5.661444   0.000000
    14  H    3.532272   6.162295   0.961801   0.000000
    15  H    2.228195   4.928626   0.963553   1.532224   0.000000
 Stoichiometry    C6H4F4O
 Framework group  C1[X(C6H4F4O)]
 Deg. of freedom    39
 Full point group                 C1      NOp   1
 Largest Abelian subgroup         C1      NOp   1
 Largest concise Abelian subgroup C1      NOp   1
                         Standard orientation:                         
 ---------------------------------------------------------------------
 Center     Atomic      Atomic             Coordinates (Angstroms)
 Number     Number       Type             X           Y           Z
 ---------------------------------------------------------------------
      1          6           0       -0.803608    0.616917   -0.017537
      2          6           0       -0.543166   -0.741846   -0.025906
      3          6           0        0.775496   -1.161355   -0.012268
      4          6           0        1.813064   -0.237053    0.008857
      5          6           0        1.546527    1.121123    0.017076
      6          6           0        0.228773    1.544046    0.003797
      7          1           0       -1.360760   -1.449947   -0.041276
      8          1           0        2.353041    1.838445    0.033316
      9          9           0        3.081148   -0.667441    0.021772
     10          9           0        1.061447   -2.469445   -0.018801
     11          9           0       -2.077685    1.059047   -0.029921
     12          9           0       -0.055135    2.853322    0.011604
     13          8           0       -3.674631   -1.499609   -0.044946
     14          1           0       -4.157130   -1.682917    0.766628
     15          1           0       -3.628597   -0.539038   -0.105097
 ---------------------------------------------------------------------
 Rotational constants (GHZ):      1.2179651      0.8049721      0.4852822
 Standard basis: Aug-CC-pVTZ (5D, 7F)
 There are   705 symmetry adapted cartesian basis functions of A   symmetry.
 There are   598 symmetry adapted basis functions of A   symmetry.
   598 basis functions,   900 primitive gaussians,   705 cartesian basis functions
    42 alpha electrons       42 beta electrons
       nuclear repulsion energy       614.9302649564 Hartrees.
 NAtoms=   15 NActive=   15 NUniq=   15 SFac= 1.00D+00 NAtFMM=   60 NAOKFM=F Big=F
 Integral buffers will be    131072 words long.
 Raffenetti 2 integral format.
 Two-electron integral symmetry is turned on.
 Nuclear repulsion after empirical dispersion term =      614.9201665076 Hartrees.
 One-electron integrals computed using PRISM.
 NBasis=   598 RedAO= T EigKep=  1.58D-06  NBF=   598
 NBsUse=   597 1.00D-06 EigRej=  9.53D-07 NBFU=   597
 Initial guess from the checkpoint file:  "327-54-8.chk"
 B after Tr=     0.000000    0.000000    0.000000
         Rot=    0.999999   -0.000054    0.000022    0.001023 Ang=  -0.12 deg.
 ExpMin= 2.53D-02 ExpMax= 1.95D+04 ExpMxC= 6.65D+02 IAcc=3 IRadAn=         5 AccDes= 0.00D+00
 Harris functional with IExCor=  402 and IRadAn=       5 diagonalized for initial guess.
 HarFok:  IExCor=  402 AccDes= 0.00D+00 IRadAn=         5 IDoV= 1 UseB2=F ITyADJ=14
 ICtDFT=  3500011 ScaDFX=  1.000000  1.000000  1.000000  1.000000
 FoFCou: FMM=F IPFlag=           0 FMFlag=      100000 FMFlg1=           0
         NFxFlg=           0 DoJE=T BraDBF=F KetDBF=T FulRan=T
         wScrn=  0.000000 ICntrl=     500 IOpCl=  0 I1Cent=   200000004 NGrid=           0
         NMat0=    1 NMatS0=      1 NMatT0=    0 NMatD0=    1 NMtDS0=    0 NMtDT0=    0
 Petite list used in FoFCou.
 Requested convergence on RMS density matrix=1.00D-08 within 128 cycles.
 Requested convergence on MAX density matrix=1.00D-06.
 Requested convergence on             energy=1.00D-06.
 No special actions if energy rises.
 SCF Done:  E(RB3LYP) =  -705.905191608     A.U. after    8 cycles
            NFock=  8  Conv=0.67D-08     -V/T= 2.0055
 Calling FoFJK, ICntrl=      2127 FMM=F ISym2X=0 I1Cent= 0 IOpClX= 0 NMat=1 NMatS=1 NMatT=0.
 ***** Axes restored to original set *****
 -------------------------------------------------------------------
 Center     Atomic                   Forces (Hartrees/Bohr)
 Number     Number              X              Y              Z
 -------------------------------------------------------------------
      1        6           0.001676478   -0.000136657    0.000043220
      2        6          -0.000108963    0.000132114   -0.000041531
      3        6          -0.000128524    0.001704539   -0.000009176
      4        6          -0.001740885    0.000319542   -0.000001618
      5        6          -0.000024680    0.000035181   -0.000016172
      6        6           0.000155847   -0.001823506   -0.000021356
      7        1           0.000779604    0.000011623   -0.000067489
      8        1          -0.000035163   -0.000015858   -0.000002343
      9        9           0.001004704   -0.000260390    0.000007823
     10        9           0.000170840   -0.001009786   -0.000000864
     11        9          -0.000659311    0.000160808   -0.000160687
     12        9          -0.000183072    0.001076325    0.000009250
     13        8          -0.000081098   -0.000185803    0.000120817
     14        1          -0.000405609    0.000219148   -0.000408273
     15        1          -0.000420169   -0.000227281    0.000548398
 -------------------------------------------------------------------
 Cartesian Forces:  Max     0.001823506 RMS     0.000626303

 GradGradGradGradGradGradGradGradGradGradGradGradGradGradGradGradGradGrad
 Berny optimization.
 Using GEDIIS/GDIIS optimizer.
 FormGI is forming the generalized inverse of G from B-inverse, IUseBI=4.
 Internal  Forces:  Max     0.001086781 RMS     0.000312348
 Search for a local minimum.
 Step number   2 out of a maximum of   83
 All quantities printed in internal units (Hartrees-Bohrs-Radians)
 Mixed Optimization -- En-DIIS/RFO-DIIS
 Update second derivatives using D2CorX and points    1    2
 DE= -2.27D-04 DEPred=-2.03D-04 R= 1.12D+00
 TightC=F SS=  1.41D+00  RLast= 5.39D-02 DXNew= 5.0454D-01 1.6182D-01
 Trust test= 1.12D+00 RLast= 5.39D-02 DXMaxT set to 3.00D-01
 ITU=  1  0
 Use linear search instead of GDIIS.
     Eigenvalues ---    0.00482   0.00921   0.01943   0.02086   0.02283
     Eigenvalues ---    0.02290   0.02297   0.02303   0.02306   0.02317
     Eigenvalues ---    0.02323   0.02679   0.04414   0.08353   0.09258
     Eigenvalues ---    0.16000   0.18911   0.20501   0.22226   0.23164
     Eigenvalues ---    0.24037   0.24965   0.25000   0.25000   0.25000
     Eigenvalues ---    0.35320   0.36390   0.43022   0.44046   0.48007
     Eigenvalues ---    0.48344   0.48614   0.48866   0.52655   0.55265
     Eigenvalues ---    0.56063   0.58448   0.58543   0.59875
 RFO step:  Lambda=-4.69780926D-05 EMin= 4.82189942D-03
 Quartic linear search produced a step of  0.16175.
 Iteration  1 RMS(Cart)=  0.00682325 RMS(Int)=  0.00002329
 Iteration  2 RMS(Cart)=  0.00002466 RMS(Int)=  0.00000793
 Iteration  3 RMS(Cart)=  0.00000000 RMS(Int)=  0.00000793
 Variable       Old X    -DE/DX   Delta X   Delta X   Delta X     New X
                                 (Linear)    (Quad)   (Total)
    R1        2.61448  -0.00051   0.00054  -0.00131  -0.00077   2.61371
    R2        2.62246  -0.00054   0.00090  -0.00154  -0.00065   2.62181
    R3        2.54861   0.00084   0.00156   0.00149   0.00306   2.55167
    R4        2.61510  -0.00046   0.00056  -0.00128  -0.00073   2.61437
    R5        2.04414  -0.00002   0.00071  -0.00060   0.00011   2.04425
    R6        2.62619  -0.00053   0.00093  -0.00160  -0.00066   2.62553
    R7        2.53034   0.00103   0.00153   0.00157   0.00310   2.53343
    R8        2.61558  -0.00044   0.00055  -0.00123  -0.00067   2.61491
    R9        2.53071   0.00104   0.00151   0.00160   0.00311   2.53381
   R10        2.61542  -0.00048   0.00053  -0.00129  -0.00076   2.61466
   R11        2.03992  -0.00004   0.00065  -0.00032   0.00033   2.04025
   R12        2.53172   0.00109   0.00154   0.00169   0.00323   2.53494
   R13        4.37359   0.00071   0.00507   0.02431   0.02938   4.40297
   R14        4.21068   0.00021   0.00206   0.01114   0.01320   4.22388
   R15        1.81754  -0.00018   0.00114  -0.00073   0.00041   1.81795
   R16        1.82085  -0.00015   0.00122  -0.00067   0.00055   1.82140
    A1        2.11318   0.00016  -0.00012   0.00054   0.00042   2.11360
    A2        2.09409  -0.00027   0.00003  -0.00053  -0.00051   2.09359
    A3        2.07591   0.00011   0.00009  -0.00001   0.00009   2.07600
    A4        2.06808  -0.00025   0.00015  -0.00115  -0.00100   2.06708
    A5        2.09520   0.00020  -0.00006   0.00087   0.00080   2.09601
    A6        2.11990   0.00005  -0.00009   0.00028   0.00019   2.12010
    A7        2.10593   0.00011  -0.00009   0.00057   0.00048   2.10642
    A8        2.09393  -0.00013  -0.00004  -0.00062  -0.00066   2.09327
    A9        2.08332   0.00002   0.00013   0.00005   0.00018   2.08350
   A10        2.10477   0.00013  -0.00004   0.00065   0.00061   2.10538
   A11        2.08674   0.00001   0.00012   0.00000   0.00012   2.08686
   A12        2.09168  -0.00014  -0.00008  -0.00065  -0.00073   2.09095
   A13        2.07504  -0.00026   0.00007  -0.00130  -0.00122   2.07382
   A14        2.10397   0.00013  -0.00005   0.00063   0.00059   2.10456
   A15        2.10417   0.00013  -0.00002   0.00066   0.00064   2.10481
   A16        2.09937   0.00011   0.00002   0.00069   0.00070   2.10007
   A17        2.08902   0.00002   0.00009   0.00000   0.00009   2.08911
   A18        2.09479  -0.00014  -0.00011  -0.00068  -0.00079   2.09400
   A19        2.44921   0.00000  -0.00007  -0.00100  -0.00109   2.44812
   A20        2.00725   0.00017   0.00059   0.00380   0.00438   2.01164
   A21        2.09937   0.00050   0.00081   0.00541   0.00623   2.10559
   A22        1.50169   0.00000  -0.00026  -0.00147  -0.00176   1.49992
   A23        1.84070  -0.00018   0.00193  -0.00279  -0.00086   1.83985
   A24        2.41304  -0.00009  -0.00006  -0.00038  -0.00047   2.41257
    D1        0.00019   0.00001  -0.00035   0.00016  -0.00020   0.00000
    D2        3.14020  -0.00001  -0.00013   0.00004  -0.00009   3.14011
    D3       -3.14119   0.00001   0.00022   0.00007   0.00028  -3.14090
    D4       -0.00118  -0.00001   0.00044  -0.00005   0.00038  -0.00079
    D5        0.00007   0.00000   0.00033  -0.00007   0.00026   0.00033
    D6       -3.14145   0.00000   0.00023   0.00005   0.00028  -3.14117
    D7        3.14145   0.00000  -0.00023   0.00002  -0.00022   3.14124
    D8       -0.00007   0.00000  -0.00033   0.00014  -0.00019  -0.00026
    D9       -0.02067  -0.00002  -0.00029  -0.00045  -0.00076  -0.02143
   D10        3.12113  -0.00002   0.00027  -0.00054  -0.00029   3.12084
   D11       -0.00040   0.00000   0.00022  -0.00002   0.00020  -0.00020
   D12        3.14068  -0.00001   0.00015  -0.00019  -0.00004   3.14064
   D13       -3.14039   0.00001   0.00000   0.00010   0.00010  -3.14029
   D14        0.00069   0.00001  -0.00007  -0.00008  -0.00014   0.00055
   D15       -0.01588   0.00006   0.00024   0.00657   0.00680  -0.00908
   D16        3.12408   0.00004   0.00046   0.00645   0.00690   3.13098
   D17        0.00036   0.00000  -0.00007  -0.00021  -0.00027   0.00008
   D18        3.14157   0.00000  -0.00004  -0.00001  -0.00005   3.14152
   D19       -3.14073   0.00000   0.00000  -0.00003  -0.00003  -3.14076
   D20        0.00049   0.00000   0.00003   0.00017   0.00019   0.00068
   D21       -0.00009   0.00001   0.00004   0.00029   0.00033   0.00024
   D22       -3.14141   0.00000  -0.00005   0.00007   0.00002  -3.14139
   D23       -3.14130   0.00000   0.00001   0.00009   0.00010  -3.14120
   D24        0.00056   0.00000  -0.00008  -0.00013  -0.00021   0.00036
   D25       -0.00012   0.00000  -0.00017  -0.00015  -0.00032  -0.00044
   D26        3.14140  -0.00001  -0.00007  -0.00027  -0.00034   3.14105
   D27        3.14120   0.00000  -0.00008   0.00006  -0.00001   3.14119
   D28       -0.00047   0.00000   0.00002  -0.00006  -0.00003  -0.00050
   D29       -1.76017   0.00012  -0.00345  -0.00995  -0.01340  -1.77357
   D30        0.08307  -0.00004  -0.00130  -0.01356  -0.01487   0.06820
   D31        0.13764   0.00002  -0.00143  -0.01257  -0.01402   0.12362
   D32       -0.11524   0.00002   0.00153   0.01307   0.01458  -0.10066
   D33        1.98533   0.00052   0.00245   0.01806   0.02050   2.00583
         Item               Value     Threshold  Converged?
 Maximum Force            0.001087     0.000450     NO 
 RMS     Force            0.000312     0.000300     NO 
 Maximum Displacement     0.035821     0.001800     NO 
 RMS     Displacement     0.006821     0.001200     NO 
 Predicted change in Energy=-2.609187D-05
 GradGradGradGradGradGradGradGradGradGradGradGradGradGradGradGradGradGrad

                          Input orientation:                          
 ---------------------------------------------------------------------
 Center     Atomic      Atomic             Coordinates (Angstroms)
 Number     Number       Type             X           Y           Z
 ---------------------------------------------------------------------
      1          6           0       -0.799332    0.615681   -0.015981
      2          6           0       -0.536389   -0.742193   -0.023011
      3          6           0        0.783140   -1.157739   -0.010961
      4          6           0        1.818236   -0.231139    0.007515
      5          6           0        1.549328    1.126214    0.014327
      6          6           0        0.230664    1.545005    0.002701
      7          1           0       -1.352126   -1.452563   -0.036229
      8          1           0        2.354277    1.845598    0.028497
      9          9           0        3.088984   -0.658816    0.019000
     10          9           0        1.072366   -2.466792   -0.016220
     11          9           0       -2.076024    1.055244   -0.026555
     12          9           0       -0.056531    2.855318    0.009597
     13          8           0       -3.681440   -1.506167   -0.046393
     14          1           0       -4.171046   -1.695398    0.759805
     15          1           0       -3.635066   -0.544841   -0.098310
 ---------------------------------------------------------------------
                    Distance matrix (angstroms):
                    1          2          3          4          5
     1  C    0.000000
     2  C    1.383116   0.000000
     3  C    2.376817   1.383467   0.000000
     4  C    2.751239   2.409640   1.389371   0.000000
     5  C    2.403699   2.800456   2.409175   1.383750   0.000000
     6  C    1.387402   2.412531   2.758667   2.382245   1.383617
     7  H    2.140940   1.081770   2.155672   3.397791   3.882149
     8  H    3.385251   3.880111   3.389699   2.144905   1.079655
     9  F    4.092013   3.626575   2.359394   1.340836   2.357307
    10  F    3.606230   2.358470   1.340634   2.356911   3.624654
    11  F    1.350285   2.366700   3.615571   4.101366   3.626277
    12  F    2.359742   3.629519   4.100011   3.611228   2.359789
    13  O    3.579066   3.236596   4.478296   5.645798   5.856113
    14  H    4.160695   3.838246   5.042531   6.211400   6.421831
    15  H    3.065123   3.105868   4.461369   5.463342   5.448216
                    6          7          8          9         10
     6  C    0.000000
     7  H    3.390008   0.000000
     8  H    2.144936   4.961802   0.000000
     9  F    3.609306   4.511823   2.609976   0.000000
    10  F    4.099187   2.628160   4.499111   2.708646   0.000000
    11  F    2.358290   2.610214   4.500584   5.442186   4.724109
    12  F    1.341435   4.498722   2.613787   4.716300   5.440581
    13  O    4.961514   2.329953   6.904333   6.823557   4.849989
    14  H    5.518014   2.939209   7.460114   7.370980   5.356365
    15  H    4.395626   2.457565   6.450000   6.726039   5.085327
                   11         12         13         14         15
    11  F    0.000000
    12  F    2.705536   0.000000
    13  O    3.023008   5.671477   0.000000
    14  H    3.545915   6.180701   0.962018   0.000000
    15  H    2.235181   4.937473   0.963843   1.532128   0.000000
 Stoichiometry    C6H4F4O
 Framework group  C1[X(C6H4F4O)]
 Deg. of freedom    39
 Full point group                 C1      NOp   1
 Largest Abelian subgroup         C1      NOp   1
 Largest concise Abelian subgroup C1      NOp   1
                         Standard orientation:                         
 ---------------------------------------------------------------------
 Center     Atomic      Atomic             Coordinates (Angstroms)
 Number     Number       Type             X           Y           Z
 ---------------------------------------------------------------------
      1          6           0       -0.800025    0.617848   -0.016084
      2          6           0       -0.542819   -0.741121   -0.023642
      3          6           0        0.774937   -1.162245   -0.011188
      4          6           0        1.813930   -0.240036    0.008202
      5          6           0        1.550757    1.118438    0.015538
      6          6           0        0.233880    1.542803    0.003510
      7          1           0       -1.361544   -1.448032   -0.037570
      8          1           0        2.358731    1.834407    0.030418
      9          9           0        3.082854   -0.673084    0.020063
     10          9           0        1.058632   -2.472505   -0.016939
     11          9           0       -2.074844    1.062807   -0.027032
     12          9           0       -0.047779    2.854314    0.010899
     13          8           0       -3.691059   -1.491787   -0.048823
     14          1           0       -4.181830   -1.679331    0.757061
     15          1           0       -3.640600   -0.530642   -0.100260
 ---------------------------------------------------------------------
 Rotational constants (GHZ):      1.2173715      0.8021593      0.4841468
 Standard basis: Aug-CC-pVTZ (5D, 7F)
 There are   705 symmetry adapted cartesian basis functions of A   symmetry.
 There are   598 symmetry adapted basis functions of A   symmetry.
   598 basis functions,   900 primitive gaussians,   705 cartesian basis functions
    42 alpha electrons       42 beta electrons
       nuclear repulsion energy       614.5176874505 Hartrees.
 NAtoms=   15 NActive=   15 NUniq=   15 SFac= 1.00D+00 NAtFMM=   60 NAOKFM=F Big=F
 Integral buffers will be    131072 words long.
 Raffenetti 2 integral format.
 Two-electron integral symmetry is turned on.
 Nuclear repulsion after empirical dispersion term =      614.5076115900 Hartrees.
 One-electron integrals computed using PRISM.
 NBasis=   598 RedAO= T EigKep=  1.57D-06  NBF=   598
 NBsUse=   597 1.00D-06 EigRej=  9.52D-07 NBFU=   597
 Initial guess from the checkpoint file:  "327-54-8.chk"
 B after Tr=     0.000000    0.000000    0.000000
         Rot=    0.999999   -0.000016    0.000031    0.001161 Ang=  -0.13 deg.
 ExpMin= 2.53D-02 ExpMax= 1.95D+04 ExpMxC= 6.65D+02 IAcc=3 IRadAn=         5 AccDes= 0.00D+00
 Harris functional with IExCor=  402 and IRadAn=       5 diagonalized for initial guess.
 HarFok:  IExCor=  402 AccDes= 0.00D+00 IRadAn=         5 IDoV= 1 UseB2=F ITyADJ=14
 ICtDFT=  3500011 ScaDFX=  1.000000  1.000000  1.000000  1.000000
 FoFCou: FMM=F IPFlag=           0 FMFlag=      100000 FMFlg1=           0
         NFxFlg=           0 DoJE=T BraDBF=F KetDBF=T FulRan=T
         wScrn=  0.000000 ICntrl=     500 IOpCl=  0 I1Cent=   200000004 NGrid=           0
         NMat0=    1 NMatS0=      1 NMatT0=    0 NMatD0=    1 NMtDS0=    0 NMtDT0=    0
 Petite list used in FoFCou.
 Requested convergence on RMS density matrix=1.00D-08 within 128 cycles.
 Requested convergence on MAX density matrix=1.00D-06.
 Requested convergence on             energy=1.00D-06.
 No special actions if energy rises.
 SCF Done:  E(RB3LYP) =  -705.905230347     A.U. after    8 cycles
            NFock=  8  Conv=0.49D-08     -V/T= 2.0055
 Calling FoFJK, ICntrl=      2127 FMM=F ISym2X=0 I1Cent= 0 IOpClX= 0 NMat=1 NMatS=1 NMatT=0.
 ***** Axes restored to original set *****
 -------------------------------------------------------------------
 Center     Atomic                   Forces (Hartrees/Bohr)
 Number     Number              X              Y              Z
 -------------------------------------------------------------------
      1        6           0.000128340    0.000442933    0.000062488
      2        6          -0.000328747    0.000014126   -0.000043419
      3        6           0.000262105    0.000126915    0.000007361
      4        6          -0.000206475   -0.000205269   -0.000020386
      5        6           0.000117160    0.000122188    0.000011485
      6        6          -0.000211098   -0.000175081   -0.000026993
      7        1           0.000728608    0.000057126   -0.000084220
      8        1          -0.000144764   -0.000111421   -0.000006022
      9        9          -0.000218543    0.000072456   -0.000001395
     10        9          -0.000037747    0.000252203    0.000002092
     11        9           0.000532333   -0.000247182   -0.000149712
     12        9           0.000021719   -0.000223257   -0.000004341
     13        8          -0.000022778    0.000152057    0.000350456
     14        1          -0.000278350    0.000202203   -0.000573430
     15        1          -0.000341763   -0.000480000    0.000476035
 -------------------------------------------------------------------
 Cartesian Forces:  Max     0.000728608 RMS     0.000252932

 GradGradGradGradGradGradGradGradGradGradGradGradGradGradGradGradGradGrad
 Berny optimization.
 Using GEDIIS/GDIIS optimizer.
 FormGI is forming the generalized inverse of G from B-inverse, IUseBI=4.
 Internal  Forces:  Max     0.000492183 RMS     0.000170330
 Search for a local minimum.
 Step number   3 out of a maximum of   83
 All quantities printed in internal units (Hartrees-Bohrs-Radians)
 Mixed Optimization -- En-DIIS/RFO-DIIS
 Swapping is turned off.
 Update second derivatives using D2CorX and points    1    2    3
 DE= -3.87D-05 DEPred=-2.61D-05 R= 1.48D+00
 TightC=F SS=  1.41D+00  RLast= 4.98D-02 DXNew= 5.0454D-01 1.4928D-01
 Trust test= 1.48D+00 RLast= 4.98D-02 DXMaxT set to 3.00D-01
 ITU=  1  1  0
     Eigenvalues ---    0.00390   0.00707   0.01740   0.01955   0.02111
     Eigenvalues ---    0.02284   0.02291   0.02298   0.02303   0.02307
     Eigenvalues ---    0.02317   0.02323   0.04356   0.08308   0.08427
     Eigenvalues ---    0.16000   0.18892   0.20491   0.22091   0.23148
     Eigenvalues ---    0.24042   0.24999   0.25000   0.25000   0.25080
     Eigenvalues ---    0.35347   0.36471   0.43034   0.44043   0.48137
     Eigenvalues ---    0.48245   0.48615   0.50781   0.55062   0.55691
     Eigenvalues ---    0.57214   0.58451   0.58544   0.79266
 En-DIIS/RFO-DIIS IScMMF=        0 using points:     3    2
 RFO step:  Lambda=-7.07168204D-06.
 DidBck=F Rises=F RFO-DIIS coefs:    2.02926   -1.02926
 Iteration  1 RMS(Cart)=  0.01216584 RMS(Int)=  0.00008999
 Iteration  2 RMS(Cart)=  0.00009566 RMS(Int)=  0.00003496
 Iteration  3 RMS(Cart)=  0.00000001 RMS(Int)=  0.00003496
 Variable       Old X    -DE/DX   Delta X   Delta X   Delta X     New X
                                 (Linear)    (Quad)   (Total)
    R1        2.61371  -0.00018  -0.00079   0.00027  -0.00051   2.61320
    R2        2.62181  -0.00041  -0.00066  -0.00039  -0.00106   2.62075
    R3        2.55167  -0.00043   0.00315  -0.00125   0.00191   2.55358
    R4        2.61437  -0.00013  -0.00075   0.00037  -0.00037   2.61400
    R5        2.04425  -0.00021   0.00011  -0.00073  -0.00061   2.04363
    R6        2.62553  -0.00042  -0.00068  -0.00046  -0.00114   2.62439
    R7        2.53343  -0.00025   0.00319  -0.00086   0.00233   2.53576
    R8        2.61491  -0.00014  -0.00069   0.00033  -0.00036   2.61455
    R9        2.53381  -0.00023   0.00320  -0.00081   0.00239   2.53620
   R10        2.61466  -0.00015  -0.00079   0.00033  -0.00045   2.61421
   R11        2.04025  -0.00018   0.00034  -0.00049  -0.00015   2.04010
   R12        2.53494  -0.00023   0.00332  -0.00084   0.00248   2.53743
   R13        4.40297   0.00047   0.03024   0.02010   0.05033   4.45331
   R14        4.22388   0.00017   0.01359   0.00888   0.02247   4.24635
   R15        1.81795  -0.00038   0.00042  -0.00037   0.00005   1.81800
   R16        1.82140  -0.00043   0.00056  -0.00054   0.00000   1.82140
    A1        2.11360   0.00007   0.00043   0.00003   0.00046   2.11406
    A2        2.09359  -0.00013  -0.00052  -0.00013  -0.00067   2.09292
    A3        2.07600   0.00006   0.00009   0.00010   0.00021   2.07620
    A4        2.06708  -0.00010  -0.00103  -0.00007  -0.00109   2.06599
    A5        2.09601   0.00012   0.00083   0.00058   0.00138   2.09739
    A6        2.12010  -0.00002   0.00020  -0.00051  -0.00029   2.11981
    A7        2.10642   0.00004   0.00050   0.00003   0.00052   2.10694
    A8        2.09327  -0.00001  -0.00068   0.00018  -0.00050   2.09277
    A9        2.08350  -0.00003   0.00018  -0.00020  -0.00002   2.08348
   A10        2.10538   0.00005   0.00063   0.00007   0.00070   2.10608
   A11        2.08686  -0.00005   0.00012  -0.00029  -0.00018   2.08668
   A12        2.09095  -0.00001  -0.00075   0.00023  -0.00053   2.09042
   A13        2.07382  -0.00010  -0.00126  -0.00011  -0.00136   2.07245
   A14        2.10456   0.00005   0.00060   0.00005   0.00065   2.10521
   A15        2.10481   0.00005   0.00066   0.00006   0.00071   2.10553
   A16        2.10007   0.00003   0.00072   0.00006   0.00077   2.10085
   A17        2.08911  -0.00004   0.00009  -0.00029  -0.00020   2.08891
   A18        2.09400   0.00000  -0.00081   0.00024  -0.00058   2.09342
   A19        2.44812  -0.00013  -0.00112  -0.00138  -0.00259   2.44553
   A20        2.01164   0.00023   0.00451   0.00346   0.00790   2.01954
   A21        2.10559   0.00049   0.00641   0.00682   0.01328   2.11888
   A22        1.49992  -0.00003  -0.00181  -0.00098  -0.00292   1.49700
   A23        1.83985  -0.00011  -0.00088  -0.00004  -0.00090   1.83894
   A24        2.41257  -0.00006  -0.00048  -0.00041  -0.00103   2.41153
    D1        0.00000   0.00001  -0.00020   0.00017  -0.00004  -0.00004
    D2        3.14011   0.00000  -0.00010   0.00067   0.00056   3.14067
    D3       -3.14090   0.00000   0.00029  -0.00031  -0.00003  -3.14093
    D4       -0.00079  -0.00001   0.00040   0.00019   0.00057  -0.00022
    D5        0.00033  -0.00001   0.00027  -0.00025   0.00002   0.00035
    D6       -3.14117  -0.00001   0.00029  -0.00026   0.00003  -3.14114
    D7        3.14124   0.00001  -0.00022   0.00022   0.00001   3.14125
    D8       -0.00026   0.00001  -0.00020   0.00021   0.00002  -0.00024
    D9       -0.02143  -0.00001  -0.00078   0.00024  -0.00059  -0.02202
   D10        3.12084  -0.00002  -0.00030  -0.00023  -0.00058   3.12026
   D11       -0.00020  -0.00001   0.00021  -0.00017   0.00005  -0.00016
   D12        3.14064   0.00000  -0.00004   0.00019   0.00015   3.14079
   D13       -3.14029   0.00000   0.00010  -0.00068  -0.00056  -3.14086
   D14        0.00055   0.00001  -0.00015  -0.00032  -0.00046   0.00009
   D15       -0.00908   0.00004   0.00700   0.00498   0.01195   0.00287
   D16        3.13098   0.00003   0.00710   0.00550   0.01257  -3.13963
   D17        0.00008   0.00000  -0.00028   0.00025  -0.00003   0.00005
   D18        3.14152   0.00000  -0.00005   0.00004  -0.00002   3.14151
   D19       -3.14076   0.00000  -0.00004  -0.00010  -0.00013  -3.14090
   D20        0.00068   0.00000   0.00020  -0.00032  -0.00012   0.00056
   D21        0.00024   0.00000   0.00034  -0.00032   0.00001   0.00025
   D22       -3.14139   0.00000   0.00002  -0.00002   0.00000  -3.14139
   D23       -3.14120   0.00000   0.00011  -0.00011   0.00000  -3.14121
   D24        0.00036   0.00000  -0.00021   0.00020  -0.00002   0.00034
   D25       -0.00044   0.00000  -0.00033   0.00033  -0.00001  -0.00045
   D26        3.14105   0.00000  -0.00035   0.00033  -0.00001   3.14104
   D27        3.14119   0.00000  -0.00001   0.00002   0.00001   3.14119
   D28       -0.00050   0.00000  -0.00003   0.00003   0.00000  -0.00050
   D29       -1.77357   0.00009  -0.01379  -0.01231  -0.02609  -1.79966
   D30        0.06820  -0.00002  -0.01530  -0.01232  -0.02770   0.04051
   D31        0.12362   0.00003  -0.01443  -0.01353  -0.02806   0.09556
   D32       -0.10066   0.00000   0.01501   0.01313   0.02806  -0.07260
   D33        2.00583   0.00049   0.02110   0.01995   0.04099   2.04683
         Item               Value     Threshold  Converged?
 Maximum Force            0.000492     0.000450     NO 
 RMS     Force            0.000170     0.000300     YES
 Maximum Displacement     0.064108     0.001800     NO 
 RMS     Displacement     0.012159     0.001200     NO 
 Predicted change in Energy=-2.736036D-05
 GradGradGradGradGradGradGradGradGradGradGradGradGradGradGradGradGradGrad

                          Input orientation:                          
 ---------------------------------------------------------------------
 Center     Atomic      Atomic             Coordinates (Angstroms)
 Number     Number       Type             X           Y           Z
 ---------------------------------------------------------------------
      1          6           0       -0.793630    0.615081   -0.012209
      2          6           0       -0.530140   -0.742421   -0.017761
      3          6           0        0.789870   -1.155849   -0.008729
      4          6           0        1.823609   -0.228563    0.005373
      5          6           0        1.554314    1.128525    0.010745
      6          6           0        0.235144    1.544999    0.002103
      7          1           0       -1.344357   -1.454086   -0.028085
      8          1           0        2.358536    1.848660    0.021522
      9          9           0        3.095948   -0.655544    0.014017
     10          9           0        1.080720   -2.465809   -0.012835
[...]
 ! A7    A(2,3,4)              120.7269         -DE/DX =    0.0                 !
 ! A8    A(2,3,10)             119.9152         -DE/DX =    0.0                 !
 ! A9    A(4,3,10)             119.3579         -DE/DX =    0.0                 !
 ! A10   A(3,4,5)              120.6366         -DE/DX =    0.0                 !
 ! A11   A(3,4,9)              119.5573         -DE/DX =    0.0                 !
 ! A12   A(5,4,9)              119.8061         -DE/DX =    0.0                 !
 ! A13   A(4,5,6)              118.7661         -DE/DX =    0.0                 !
 ! A14   A(4,5,8)              120.6107         -DE/DX =    0.0                 !
 ! A15   A(6,5,8)              120.6233         -DE/DX =    0.0                 !
 ! A16   A(1,6,5)              120.3916         -DE/DX =    0.0                 !
 ! A17   A(1,6,12)             119.6524         -DE/DX =    0.0                 !
 ! A18   A(5,6,12)             119.956          -DE/DX =    0.0                 !
 ! A19   A(2,7,13)             138.2251         -DE/DX =    0.0                 !
 ! A20   A(1,11,15)            117.4938         -DE/DX =    0.0                 !
 ! A21   A(7,13,14)            162.3781         -DE/DX =    0.0                 !
 ! A22   A(7,13,15)             91.7091         -DE/DX =    0.0                 !
 ! A23   A(14,13,15)           105.9127         -DE/DX =    0.0                 !
 ! A24   A(11,15,13)           132.1214         -DE/DX =    0.0                 !
 ! D1    D(6,1,2,3)              0.0006         -DE/DX =    0.0                 !
 ! D2    D(6,1,2,7)            179.9978         -DE/DX =    0.0                 !
 ! D3    D(11,1,2,3)           180.0044         -DE/DX =    0.0                 !
 ! D4    D(11,1,2,7)             0.0016         -DE/DX =    0.0                 !
 ! D5    D(2,1,6,5)              0.0013         -DE/DX =    0.0                 !
 ! D6    D(2,1,6,12)           180.0012         -DE/DX =    0.0                 !
 ! D7    D(11,1,6,5)          -180.0025         -DE/DX =    0.0                 !
 ! D8    D(11,1,6,12)           -0.0026         -DE/DX =    0.0                 !
 ! D9    D(2,1,11,15)           -0.0378         -DE/DX =    0.0                 !
 ! D10   D(6,1,11,15)         -180.0341         -DE/DX =    0.0                 !
 ! D11   D(1,2,3,4)             -0.0024         -DE/DX =    0.0                 !
 ! D12   D(1,2,3,10)           179.9986         -DE/DX =    0.0                 !
 ! D13   D(7,2,3,4)           -179.9996         -DE/DX =    0.0                 !
 ! D14   D(7,2,3,10)             0.0015         -DE/DX =    0.0                 !
 ! D15   D(1,2,7,13)             0.0625         -DE/DX =    0.0                 !
 ! D16   D(3,2,7,13)           180.0596         -DE/DX =    0.0                 !
 ! D17   D(2,3,4,5)              0.0024         -DE/DX =    0.0                 !
 ! D18   D(2,3,4,9)           -179.9999         -DE/DX =    0.0                 !
 ! D19   D(10,3,4,5)          -179.9986         -DE/DX =    0.0                 !
 ! D20   D(10,3,4,9)            -0.001          -DE/DX =    0.0                 !
 ! D21   D(3,4,5,6)             -0.0005         -DE/DX =    0.0                 !
 ! D22   D(3,4,5,8)            179.9984         -DE/DX =    0.0                 !
 ! D23   D(9,4,5,6)            180.0018         -DE/DX =    0.0                 !
 ! D24   D(9,4,5,8)              0.0008         -DE/DX =    0.0                 !
 ! D25   D(4,5,6,1)             -0.0013         -DE/DX =    0.0                 !
 ! D26   D(4,5,6,12)          -180.0012         -DE/DX =    0.0                 !
 ! D27   D(8,5,6,1)           -180.0003         -DE/DX =    0.0                 !
 ! D28   D(8,5,6,12)            -0.0002         -DE/DX =    0.0                 !
 ! D29   D(2,7,13,14)         -179.9313         -DE/DX =    0.0                 !
 ! D30   D(2,7,13,15)           -0.0756         -DE/DX =    0.0                 !
 ! D31   D(1,11,15,13)           0.01           -DE/DX =    0.0                 !
 ! D32   D(7,13,15,11)           0.0241         -DE/DX =    0.0                 !
 ! D33   D(14,13,15,11)        179.9787         -DE/DX =    0.0                 !
 --------------------------------------------------------------------------------
 GradGradGradGradGradGradGradGradGradGradGradGradGradGradGradGradGradGrad

 1\1\GINC-NODE104\Freq\RB3LYP\Aug-CC-pVTZ\C6H4F4O1\KAESER\01-Oct-2021\0
 \\#N Geom=AllCheck Guess=TCheck SCRF=Check GenChk RB3LYP/Aug-CC-pVTZ F
 req\\Title Card Required\\0,1\C,-0.7750944506,0.6054605084,0.039619905
 6\C,-0.4996253723,-0.7496840786,0.0533081608\C,0.8233514192,-1.1527127
 995,0.0183751517\C,1.8490021785,-0.2175659658,-0.0293300463\C,1.567938
 4284,1.137088004,-0.0428350034\C,0.2458978294,1.5430996555,-0.00794137
 1\H,-1.3028897394,-1.4713933805,0.0904997595\H,2.3653886549,1.86351109
 88,-0.0798899001\F,3.1230121349,-0.6342785409,-0.0624985467\F,1.124867
 8805,-2.4587825892,0.0304634107\F,-2.0536374152,1.0342120613,0.0728215
 258\F,-0.0538204422,2.8506165568,-0.0200579321\O,-3.6263591631,-1.4771
 15629,0.1620386082\H,-4.5410821322,-1.7702901967,0.1955877018\H,-3.657
 9078107,-0.5147537045,0.1476195755\\Version=ES64L-G09RevD.01\State=1-A
 \HF=-705.9056699\RMSD=2.579e-09\RMSF=8.797e-06\ZeroPoint=0.0907217\The
 rmal=0.1025348\Dipole=-0.6333993,0.3069307,0.0150391\DipoleDeriv=1.293
 0809,-0.3996632,-0.0318466,-0.2022461,0.1666638,0.0047242,-0.035288,0.
 0109436,0.0683332,-0.1481691,0.0328023,0.0008183,0.0148325,-0.1266452,
 -0.0000783,0.0012132,-0.0006117,-0.1020951,0.1324423,-0.1136524,0.0002
 886,-0.4102522,1.3248715,-0.0076187,0.0051333,-0.0169664,0.08016,1.297
 4918,-0.4758367,-0.0304846,-0.1910913,0.2039279,0.0039063,-0.0351741,0
 .0128787,0.0788696,-0.1140229,0.0522006,-0.0012076,0.0421535,-0.123430
 4,-0.0012879,-0.0011365,-0.001721,-0.1279713,0.1518062,-0.1069712,-0.0
 006917,-0.3480498,1.324228,-0.0096425,0.0033855,-0.0171978,0.0772335,0
 .2450812,0.0480049,-0.003454,0.031566,0.1069648,-0.0001664,-0.0031805,
 -0.0006477,0.1579028,0.0713542,-0.0210129,0.0034061,-0.019498,0.075423
 2,0.0021287,0.0034805,0.0022547,0.1715564,-1.1862588,0.329492,0.028597
 4,0.3021937,-0.2682744,-0.0067925,0.0290281,-0.0076463,-0.1045728,-0.2
 27774,0.2152193,0.0003822,0.2676074,-1.2026251,0.0097714,-0.000476,0.0
 113967,-0.1024196,-1.2532356,0.2580068,0.0320739,0.2682829,-0.2836823,
 -0.0053693,0.0319604,-0.005074,-0.0979798,-0.2221972,0.213744,0.000231
 3,0.2333071,-1.215656,0.0109982,-0.0000864,0.0116208,-0.1030977,-0.590
 5893,-0.1217119,0.0011809,-0.1726855,-0.4969122,0.0035318,0.0019429,0.
 0019318,-0.6130698,0.1481573,0.0047212,0.0057509,0.0307899,0.2998551,-
 0.0004335,0.0053198,0.000382,0.3328188,0.4028331,0.0846572,-0.0050452,
 0.1530897,0.2152912,-0.0036715,-0.0061219,-0.0015434,0.2843316\Polar=9
 9.3824651,0.0857595,93.4779924,-1.5345337,-0.7093974,50.5887909\PG=C01
  [X(C6H4F4O1)]\NImag=0\\0.67153890,0.00518556,0.69936982,-0.01697182,-
 0.00946783,0.13555486,-0.13000210,-0.01330745,0.00238814,0.72782451,0.
 06100073,-0.33148793,0.00253908,0.03590091,0.71684555,0.00116069,0.004
 87895,-0.06123628,-0.01958989,-0.01091747,0.12462256,0.01728078,0.0989
 7033,-0.00223951,-0.32467606,0.00505869,0.00818808,0.69700631,0.044273
 27,0.00412085,-0.00149288,0.07945674,-0.13640721,-0.00126236,-0.004438
 59,0.68507351,-0.00133598,-0.00321325,-0.00187600,0.00695891,0.0010782
 4,-0.06180892,-0.01750698,-0.00889697,0.13858412,-0.01511875,-0.028774
 72,0.00101883,-0.05014022,0.00662577,0.00163630,-0.21451966,-0.1513979
 9,0.00710006,0.68336446,-0.02875355,-0.07142989,0.00211805,-0.04807872
 ,0.06354810,0.00055128,-0.05650091,-0.19633882,0.00389271,-0.00304412,
 0.70019174,0.00101870,0.00211938,0.00210690,0.00253675,-0.00116913,0.0
 0528975,0.00553482,0.00687664,-0.06854811,-0.01710060,-0.00918426,0.13
 865211,-0.05026296,-0.04964127,0.00258790,-0.02973586,0.03071251,0.000
 50648,0.05793275,-0.00391265,-0.00157541,-0.12997081,-0.01214801,0.002
 36901,0.72675404,0.00652521,0.06208364,-0.00112919,0.02973121,-0.03511
 448,-0.00031439,-0.05887427,-0.04537212,0.00269573,0.06345759,-0.33194
 943,0.00247454,0.03426743,0.71935775,0.00165999,0.00063607,0.00589458,
 0.00052416,-0.00034562,0.00249749,-0.00066890,0.00096753,0.00578923,0.
 00112158,0.00485060,-0.06113364,-0.01966317,-0.01096993,0.12031141,-0.
 21658464,-0.05855237,0.00565600,0.05831427,-0.05910552,-0.00067305,-0.
 07636998,-0.02322241,0.00285322,0.01814201,0.09922524,-0.00226593,-0.3
 2541327,0.00588631,0.00822407,0.69971512,-0.15510236,-0.19790094,0.007
 02970,-0.00353968,-0.04556044,0.00095978,-0.02319873,-0.00996895,0.000
 92949,0.04343847,0.00484781,-0.00147692,0.08172241,-0.13584303,-0.0013
 3440,-0.00239602,0.68572925,0.00724884,0.00399179,-0.06768611,-0.00159
 122,0.00270744,0.00590015,0.00285275,0.00093103,0.00205667,-0.00134471
 ,-0.00323088,-0.00175921,0.00697561,0.00105111,-0.06110883,-0.01766851
 ,-0.00897121,0.13751462,0.01209611,0.00469196,-0.00026757,-0.21494371,
 -0.14227149,0.00802487,-0.01617547,-0.01966777,0.00102183,-0.00311343,
 0.00261425,0.00018699,-0.00005227,0.00096884,-0.00006116,-0.00036974,0
 .00133801,0.00011304,0.22292669,-0.02359211,-0.01532318,0.00109526,-0.
 14076394,-0.18713800,0.00694847,0.00807908,0.01244792,-0.00036117,0.00
 175329,-0.00077587,0.00002691,0.00089629,-0.00022565,-0.00004901,0.002
 69798,-0.00347804,0.00003687,0.15273067,0.19279080,0.00020029,0.000205
 01,0.00604349,0.00800010,0.00699480,-0.03495369,0.00056299,0.00051272,
 0.00595295,0.00020112,0.00000010,0.00419847,-0.00005974,-0.00005130,-0
 .00148555,0.00009043,0.00007985,0.00392008,-0.00875059,-0.00757704,0.0
 2535952,-0.00287139,0.00313052,0.00015810,-0.00010773,0.00090510,-0.00
 005672,0.00005168,0.00151648,0.00009587,0.00899290,0.00536801,-0.00019
 606,-0.21452448,-0.14289164,0.00811315,-0.01629323,-0.02251640,0.00105
 602,-0.00002761,-0.00004395,0.00002778,0.22200162,0.00171702,-0.000361
 39,0.00001438,0.00090874,-0.00032076,-0.00004693,0.00287463,-0.0033734
 1,0.00002933,-0.02492542,-0.01466580,0.00111744,-0.14296436,-0.1878464
 0,0.00707426,0.00777982,0.01058151,-0.00032886,-0.00003300,-0.00000321
 ,0.00001481,0.15589133,0.19281062,0.00018135,-0.00002932,0.00379758,-0
 .00005684,-0.00004735,-0.00144670,0.00007372,0.00007219,0.00390543,0.0
 0030415,0.00016592,0.00558494,0.00811381,0.00707136,-0.03182786,0.0005
 5835,0.00062476,0.00549783,0.00002764,0.00001529,0.00083417,-0.0088480
 4,-0.00771235,0.02277512,0.00483831,0.00204700,-0.00022307,0.00085468,
 -0.00752732,0.00024673,-0.05788803,0.02573286,0.00165153,-0.30316415,0
 .07130081,0.00717315,-0.02230476,0.01532947,0.00063465,-0.00144707,-0.
 00327601,0.00030868,-0.00091622,0.00140992,0.00000848,0.00081596,-0.00
 007088,-0.00017620,0.37938352,0.00074167,0.00284191,-0.00008897,-0.000
 37772,-0.00619606,0.00019244,-0.01874695,0.00645645,0.00061725,0.07561
 751,-0.09751842,-0.00138766,0.05369282,-0.01216031,-0.00138934,-0.0068
 7305,-0.00470985,0.00040364,-0.00077399,0.00047968,0.00001784,-0.00109
 443,0.00334223,-0.00010048,-0.10392715,0.10090757,-0.00020054,-0.00013
 020,-0.00114633,0.00012899,0.00041713,0.00472849,0.00238574,-0.0007807
 0,0.00809431,0.00710028,-0.00125170,-0.03778101,0.00000208,-0.00018378
 ,0.00593955,0.00036779,0.00029033,0.00663666,0.00004429,-0.00005074,0.
 00008540,-0.00015913,-0.00013229,-0.00481926,-0.00951206,0.00196892,0.
 02252452,-0.00549600,-0.00641454,0.00049117,-0.00637390,0.05219325,-0.
 00047204,-0.08543346,0.05569372,0.00058497,0.00624358,-0.02480613,0.00
 046591,-0.00682285,0.00059162,0.00035089,0.00323111,0.00090670,-0.0001
 5578,0.00328947,-0.00135882,-0.00023528,0.00042512,-0.00099069,0.00000
 975,0.00788496,-0.00310724,-0.00033529,0.08450218,-0.00309971,0.000005
 35,0.00020877,0.01452062,-0.02836634,0.00011146,0.05171365,-0.31573551
 ,0.00296827,0.01943380,-0.05827555,0.00048473,-0.00606274,0.00136594,0
 .00024468,0.00160991,0.00438643,-0.00014330,-0.00108803,0.00055980,-0.
 00005634,0.00088793,-0.00155770,0.00000126,-0.00577968,0.00864214,-0.0
 0003419,-0.07698880,0.39721150,0.00043599,0.00031254,0.00673591,0.0001
 4992,-0.00107253,0.00603404,0.00065078,0.00284185,-0.03763565,-0.00026
 414,0.00187589,0.00802665,0.00046058,0.00003510,0.00462652,-0.00016713
 ,-0.00012119,-0.00123707,-0.00023964,-0.00004736,-0.00489629,-0.000020
 86,0.00006080,0.00021510,-0.00029150,-0.00011783,-0.00440463,-0.000685
 33,-0.00377179,0.02234398,-0.28678102,0.06554762,0.00681773,-0.0219714
 4,0.01505946,0.00061063,-0.00068416,-0.00348910,0.00029087,0.00493747,
 0.00110567,-0.00021189,0.00017169,-0.00704986,0.00025515,-0.05768682,0
 .02726411,0.00160232,-0.00078786,-0.00068408,-0.00011631,-0.00165167,0
 .00115807,0.00004251,-0.00679728,0.00222315,0.00017065,-0.00123861,0.0
 0318705,-0.00000337,0.36313193,0.07197749,-0.09599172,-0.00127631,0.05
 244660,-0.01169414,-0.00137095,-0.00679578,-0.00476103,0.00040272,0.00
 068803,0.00284453,-0.00008873,-0.00009291,-0.00599886,0.00017737,-0.01
 869935,0.00598884,0.00061300,-0.00067181,0.00336671,-0.00011341,-0.000
 79711,0.00041349,0.00002327,0.00204270,-0.00048025,-0.00005954,0.00272
 638,-0.00154762,-0.00005459,-0.09654995,0.10420105,0.00671429,-0.00107
 537,-0.03608662,-0.00000628,-0.00019322,0.00529982,0.00034504,0.000299
 23,0.00670435,-0.00020560,-0.00010232,-0.00121870,0.00013953,0.0003955
 3,0.00457582,0.00235867,-0.00083368,0.00740016,-0.00011552,-0.00011312
 ,-0.00480545,0.00007556,-0.00003764,0.00030921,0.00017414,-0.00006532,
 -0.00020408,0.00000440,-0.00006929,0.00033087,-0.00914437,0.00169012,0
 .02236425,0.00654068,-0.02468593,0.00045190,-0.00693129,0.00065026,0.0
 0035113,0.00328073,0.00085774,-0.00015593,-0.00563562,-0.00656252,0.00
 049444,-0.00569651,0.05207595,-0.00049392,-0.08576550,0.05531428,0.000
 62053,0.00046109,-0.00097982,0.00000901,0.00314026,-0.00132483,-0.0002
 2876,-0.00107599,0.00274803,-0.00000047,-0.00019997,0.00157486,-0.0000
 2544,0.00773770,-0.00320047,-0.00032951,0.08408758,0.01965280,-0.05719
 210,0.00045430,-0.00632133,0.00084278,0.00026087,0.00171769,0.00473594
 ,-0.00015230,-0.00288313,-0.00049165,0.00020832,0.01360983,-0.02834150
 ,0.00013557,0.05133551,-0.31421337,0.00295177,0.00157478,-0.00128005,-
 0.00002438,-0.00037559,0.00098481,-0.00008389,0.00284117,-0.00158794,-
 0.00005731,0.00157194,-0.00698258,0.00006269,-0.00579248,0.00837765,-0
 .00002803,-0.07650428,0.39532770,-0.00028015,0.00184893,0.00793367,0.0
 0046637,0.00004171,0.00456195,-0.00017014,-0.00012563,-0.00121700,0.00
 043362,0.00032405,0.00662428,0.00013874,-0.00107504,0.00589172,0.00068
 771,0.00282740,-0.03712515,-0.00003321,0.00005592,0.00023368,-0.000243
 53,-0.00005351,-0.00481700,-0.00000192,-0.00005449,0.00035166,-0.00002
 537,0.00006249,-0.00018420,-0.00028679,-0.00011005,-0.00439226,-0.0006
 9018,-0.00374344,0.02215149,0.00135159,0.00031244,-0.00005346,-0.00247
 345,0.00135112,0.00006850,0.00037756,-0.00229831,0.00002720,0.00070653
 ,0.00017853,-0.00002755,-0.00020789,-0.00021329,0.00001078,-0.00009537
 ,0.00098766,-0.00001640,-0.00217069,-0.00144451,0.00006556,-0.00001568
 ,0.00002299,-0.00000077,-0.00105158,0.00014465,0.00003083,-0.00027244,
 0.00091263,-0.00000430,-0.00261592,-0.00284153,0.00014971,0.00006424,-
 0.00092343,0.00001437,0.53076529,0.00316822,-0.00086378,-0.00008845,-0
 .00150506,0.00088683,0.00003933,0.00012022,-0.00167990,0.00002419,0.00
 050617,0.00005823,-0.00001820,-0.00007879,-0.00013862,0.00000512,-0.00
 025302,0.00042767,-0.00000102,0.00083145,-0.00134270,-0.00001583,-0.00
 003144,0.00002701,0.00000015,-0.00070247,0.00017996,0.00001944,-0.0001
 8788,0.00101565,-0.00000953,-0.00325861,-0.00028777,0.00011844,-0.0000
 4838,-0.00016434,0.00000492,0.11528344,0.60104078,-0.00009968,0.000001
 47,-0.00018401,0.00011659,-0.00004813,0.00046392,-0.00001235,0.0000992
 2,0.00003357,-0.00003249,-0.00000742,-0.00007600,0.00000869,0.00000919
 ,0.00002310,0.00000400,-0.00003919,-0.00009823,0.00002845,0.00005340,-
 0.00079908,-0.00000022,-0.00000181,-0.00002654,0.00004420,-0.00000738,
 0.00000562,0.00001374,-0.00004370,0.00007352,0.00015700,0.00010511,0.0
 0071083,-0.00000018,0.00003160,0.00003287,-0.01854549,-0.01324547,0.00
 199736,-0.00076964,0.00035029,0.00001653,-0.00000171,0.00046553,-0.000
 00031,0.00001389,-0.00034581,0.00000630,-0.00006516,0.00006617,0.00000
 028,-0.00000816,0.00000824,0.00000003,0.00009019,-0.00004456,-0.000002
 53,-0.00002117,-0.00035353,-0.00000142,0.00000665,-0.00000382,0.000000
 23,0.00000678,-0.00003124,0.00000022,0.00000816,0.00006577,-0.00000141
 ,0.00088568,0.00003633,-0.00002230,0.00000763,-0.00004062,0.,-0.477431
 99,-0.16344877,0.01768061,0.47900815,0.00044408,-0.00034097,-0.0000094
 4,0.00063651,0.00014155,-0.00001773,-0.00009731,0.00057247,-0.00000587
 ,-0.00012457,-0.00003131,0.00000401,0.00003278,0.00000779,-0.00000120,
 -0.00009813,-0.00000317,0.00000290,-0.00116535,-0.00004171,0.00003175,
 -0.00000718,0.00000095,0.00000040,0.00018907,-0.00003047,-0.00000547,0
 .00006166,-0.00028009,0.00000272,-0.00079764,-0.00064803,0.00003823,0.
 00002438,0.00006715,-0.00000207,-0.10472595,-0.08703631,0.00470109,0.1
 5445528,0.10164669,0.00001473,-0.00000658,-0.00006782,-0.00000309,-0.0
 0001219,0.00025984,0.00000206,0.00000147,0.00003874,0.00000323,-0.0000
 0195,-0.00002530,-0.00000056,-0.00000052,-0.00000249,-0.00000177,0.000
 00119,-0.00001722,0.00001176,0.00000676,-0.00028405,0.00000051,0.00000
 045,0.00001016,-0.00000358,0.00000139,-0.00000595,-0.00000132,0.000002
 59,-0.00000272,-0.00000888,0.00001189,0.00019536,-0.00000096,0.,-0.000
 01084,0.01674063,0.00655342,-0.00050270,-0.01757764,-0.00649826,0.0008
 2020,-0.00575988,0.00114058,0.00016915,0.00036400,-0.00101900,-0.00000
 138,-0.00019687,0.00124180,-0.00001646,-0.00065916,0.00003527,0.000021
 98,0.00014133,0.00018719,-0.00000728,0.00053292,-0.00089789,0.00000134
 ,-0.00019518,0.00165350,-0.00000243,0.00005759,-0.00003960,-0.00000090
 ,0.00086087,-0.00023605,-0.00002337,0.00025266,-0.00088723,0.00000586,
 0.00335031,-0.00026863,-0.00013775,-0.00001505,0.00053712,-0.00000953,
 -0.04693019,0.04960492,0.00063714,-0.00172930,-0.04882764,0.00082487,0
 .04992594,-0.00413832,0.00247033,0.00009352,0.00029256,0.00002058,-0.0
 0001274,0.00011824,0.00022980,-0.00000837,-0.00037068,-0.00001368,0.00
 001294,-0.00003335,0.00017528,-0.00000170,0.00066510,-0.00028372,-0.00
 001430,0.00092147,-0.00003650,-0.00001856,0.00005839,-0.00003195,-0.00
 000122,0.00039050,-0.00016662,-0.00000992,0.00010883,-0.00044141,0.000
 00323,0.00207658,-0.00378287,-0.00002357,0.00006072,-0.00008249,-0.000
 00120,-0.00674646,-0.51212273,0.00839204,0.00882074,-0.01402456,-0.000
 05969,-0.00222432,0.52809054,0.00025330,-0.00007160,0.00021621,-0.0000
 2262,0.00002723,-0.00021241,0.00000191,-0.00004334,-0.00007367,0.00002
 839,-0.00000007,0.00005888,-0.00000354,-0.00000840,0.00000896,-0.00002
 386,0.00003409,0.00010566,0.00000883,-0.00004046,0.00059635,-0.0000024
 3,0.00000190,0.00000783,-0.00003323,0.00000998,-0.00000494,-0.00001042
 ,0.00003436,-0.00002604,-0.00017525,0.00005009,-0.00118357,-0.00000164
 ,-0.00001576,-0.00003486,0.00154039,0.00661348,-0.00165421,-0.00009857
 ,0.00175895,-0.00040521,-0.00146124,-0.00835047,0.00260103\\0.00001986
 ,0.00000236,-0.00000494,-0.00001130,-0.00000541,-0.00000404,-0.0000029
 9,-0.00000004,0.00000433,-0.00000770,-0.00001277,-0.00000301,0.0000067
 2,-0.00000168,-0.00000029,-0.00000174,-0.00001318,0.00000271,0.0000069
 5,0.00001834,0.00000204,0.00000524,-0.00001557,0.00000022,0.00000004,-
 0.00001816,0.00000136,-0.00001213,-0.00000493,0.00000033,-0.00000216,0
 .00000498,0.00000248,0.00001501,-0.00000215,-0.00000047,-0.00000629,0.
 00001720,-0.00000080,-0.00001113,0.00001212,0.00000005,0.00000162,0.00
 001888,0.00000003\\\@


 NO HUMAN INVESTIGATION CAN BECOME REAL SCIENCE
 WITHOUT GOING THROUGH MATHEMATICAL PEOPLE.
 -- LEONARDO DA VINCI, IN "PENSIERI" CA. 1492
 Job cpu time:       0 days 14 hours 14 minutes  1.3 seconds.
 File lengths (MBytes):  RWF=    419 Int=      0 D2E=      0 Chk=     28 Scr=      1
 Normal termination of Gaussian 09 at Fri Oct  1 06:22:14 2021.
