 Entering Gaussian System, Link 0=/opt/cluster/programs/g09/g09_d.01/g09//g09
 Input=/home/kaeser/nnprojects/hydra_challenge/b3lypd3/611-20-1.com
 Output=/scratch/kaeser/611-20-1/611-20-1.out
 Initial command:
 /opt/cluster/programs/g09/g09_d.01/g09/l1.exe "/scratch/kaeser/611-20-1/Gau-188883.inp" -scrdir="/scratch/kaeser/611-20-1/"
 Entering Link 1 = /opt/cluster/programs/g09/g09_d.01/g09/l1.exe PID=    188884.
  
 Copyright (c) 1988,1990,1992,1993,1995,1998,2003,2009,2013,
            Gaussian, Inc.  All Rights Reserved.
  
 This is part of the Gaussian(R) 09 program.  It is based on
 the Gaussian(R) 03 system (copyright 2003, Gaussian, Inc.),
 the Gaussian(R) 98 system (copyright 1998, Gaussian, Inc.),
 the Gaussian(R) 94 system (copyright 1995, Gaussian, Inc.),
 the Gaussian 92(TM) system (copyright 1992, Gaussian, Inc.),
 the Gaussian 90(TM) system (copyright 1990, Gaussian, Inc.),
 the Gaussian 88(TM) system (copyright 1988, Gaussian, Inc.),
 the Gaussian 86(TM) system (copyright 1986, Carnegie Mellon
 University), and the Gaussian 82(TM) system (copyright 1983,
 Carnegie Mellon University). Gaussian is a federally registered
 trademark of Gaussian, Inc.
  
 This software contains proprietary and confidential information,
 including trade secrets, belonging to Gaussian, Inc.
  
 This software is provided under written license and may be
 used, copied, transmitted, or stored only in accord with that
 written license.
  
 The following legend is applicable only to US Government
 contracts under FAR:
  
                    RESTRICTED RIGHTS LEGEND
  
 Use, reproduction and disclosure by the US Government is
 subject to restrictions as set forth in subparagraphs (a)
 and (c) of the Commercial Computer Software - Restricted
 Rights clause in FAR 52.227-19.
  
 Gaussian, Inc.
 340 Quinnipiac St., Bldg. 40, Wallingford CT 06492
  
  
 ---------------------------------------------------------------
 Warning -- This program may not be used in any manner that
 competes with the business of Gaussian, Inc. or will provide
 assistance to any competitor of Gaussian, Inc.  The licensee
 of this program is prohibited from giving any competitor of
 Gaussian, Inc. access to this program.  By using this program,
 the user acknowledges that Gaussian, Inc. is engaged in the
 business of creating and licensing software in the field of
 computational chemistry and represents and warrants to the
 licensee that it is not a competitor of Gaussian, Inc. and that
 it will not use this program in any manner prohibited above.
 ---------------------------------------------------------------
  

 Cite this work as:
 Gaussian 09, Revision D.01,
 M. J. Frisch, G. W. Trucks, H. B. Schlegel, G. E. Scuseria, 
 M. A. Robb, J. R. Cheeseman, G. Scalmani, V. Barone, B. Mennucci, 
 G. A. Petersson, H. Nakatsuji, M. Caricato, X. Li, H. P. Hratchian, 
 A. F. Izmaylov, J. Bloino, G. Zheng, J. L. Sonnenberg, M. Hada, 
 M. Ehara, K. Toyota, R. Fukuda, J. Hasegawa, M. Ishida, T. Nakajima, 
 Y. Honda, O. Kitao, H. Nakai, T. Vreven, J. A. Montgomery, Jr., 
 J. E. Peralta, F. Ogliaro, M. Bearpark, J. J. Heyd, E. Brothers, 
 K. N. Kudin, V. N. Staroverov, T. Keith, R. Kobayashi, J. Normand, 
 K. Raghavachari, A. Rendell, J. C. Burant, S. S. Iyengar, J. Tomasi, 
 M. Cossi, N. Rega, J. M. Millam, M. Klene, J. E. Knox, J. B. Cross, 
 V. Bakken, C. Adamo, J. Jaramillo, R. Gomperts, R. E. Stratmann, 
 O. Yazyev, A. J. Austin, R. Cammi, C. Pomelli, J. W. Ochterski, 
 R. L. Martin, K. Morokuma, V. G. Zakrzewski, G. A. Voth, 
 P. Salvador, J. J. Dannenberg, S. Dapprich, A. D. Daniels, 
 O. Farkas, J. B. Foresman, J. V. Ortiz, J. Cioslowski, 
 and D. J. Fox, Gaussian, Inc., Wallingford CT, 2013.
 
 ******************************************
 Gaussian 09:  ES64L-G09RevD.01 24-Apr-2013
                30-Sep-2021 
 ******************************************
 %chk=611-20-1.chk
 %Mem=4Gb
 %nprocshared=4
 Will use up to    4 processors via shared memory.
 ----------------------------------------------------
 # opt freq b3lyp/aug-cc-pvtz EmpiricalDispersion=GD3
 ----------------------------------------------------
 1/14=-1,18=20,19=15,26=3,38=1/1,3;
 2/9=110,12=2,17=6,18=5,40=1/2;
 3/5=16,6=1,7=10,11=2,16=1,25=1,30=1,71=1,74=-5,124=31/1,2,3;
 4//1;
 5/5=2,38=5/2;
 6/7=2,8=2,9=2,10=2,28=1/1;
 7//1,2,3,16;
 1/14=-1,18=20,19=15,26=3/3(2);
 2/9=110/2;
 99//99;
 2/9=110/2;
 3/5=16,6=1,7=10,11=2,16=1,25=1,30=1,71=1,74=-5,124=31/1,2,3;
 4/5=5,16=3,69=1/1;
 5/5=2,38=5/2;
 7//1,2,3,16;
 1/14=-1,18=20,19=15,26=3/3(-5);
 2/9=110/2;
 6/7=2,8=2,9=2,10=2,19=2,28=1/1;
 99/9=1/99;
 -------------------
 Title Card Required
 -------------------
 Symbolic Z-matrix:
 Charge =  0 Multiplicity = 1
 C                    -1.68271   0.02239  -0.86086 
 C                    -0.26921   0.02638  -0.86487 
 C                     0.43782   0.89403  -0.00003 
 C                    -0.26896   1.76002   0.86486 
 C                    -1.67503   1.75505   0.85136 
 C                    -2.37479   0.89142   0.00159 
 H                    -2.21544  -0.62466  -1.51781 
 H                     0.26326  -0.62462  -1.51753 
 H                     1.50258   0.89295   0.00077 
 H                     0.26287   2.41204   1.51763 
 O                    -3.80147   0.91233  -0.0193 
 H                    -4.1219    1.51872   0.65398 
 C                    -2.44855   2.69868   1.79899 
 N                    -3.0213    3.39736   2.50064 
 O                    -5.04468   2.70995   1.31111 
 H                    -5.29637   3.34117   0.633 
 H                    -4.42086   3.11985   1.91479 
 
 Add virtual bond connecting atoms O15        and H12        Dist= 3.11D+00.
 Add virtual bond connecting atoms H17        and N14        Dist= 2.91D+00.

 GradGradGradGradGradGradGradGradGradGradGradGradGradGradGradGradGradGrad
 Berny optimization.
 Initialization pass.
                           ----------------------------
                           !    Initial Parameters    !
                           ! (Angstroms and Degrees)  !
 --------------------------                            --------------------------
 ! Name  Definition              Value          Derivative Info.                !
 --------------------------------------------------------------------------------
 ! R1    R(1,2)                  1.4135         estimate D2E/DX2                !
 ! R2    R(1,6)                  1.4064         estimate D2E/DX2                !
 ! R3    R(1,7)                  1.0649         estimate D2E/DX2                !
 ! R4    R(2,3)                  1.4145         estimate D2E/DX2                !
 ! R5    R(2,8)                  1.0646         estimate D2E/DX2                !
 ! R6    R(3,4)                  1.4133         estimate D2E/DX2                !
 ! R7    R(3,9)                  1.0648         estimate D2E/DX2                !
 ! R8    R(4,5)                  1.4061         estimate D2E/DX2                !
 ! R9    R(4,10)                 1.0649         estimate D2E/DX2                !
 ! R10   R(5,6)                  1.3992         estimate D2E/DX2                !
 ! R11   R(5,13)                 1.5449         estimate D2E/DX2                !
 ! R12   R(6,11)                 1.427          estimate D2E/DX2                !
 ! R13   R(11,12)                0.9611         estimate D2E/DX2                !
 ! R14   R(12,15)                1.6439         estimate D2E/DX2                !
 ! R15   R(13,14)                1.1439         estimate D2E/DX2                !
 ! R16   R(14,17)                1.5424         estimate D2E/DX2                !
 ! R17   R(15,16)                0.96           estimate D2E/DX2                !
 ! R18   R(15,17)                0.96           estimate D2E/DX2                !
 ! A1    A(2,1,6)              119.4774         estimate D2E/DX2                !
 ! A2    A(2,1,7)              120.0138         estimate D2E/DX2                !
 ! A3    A(6,1,7)              120.5024         estimate D2E/DX2                !
 ! A4    A(1,2,3)              119.9905         estimate D2E/DX2                !
 ! A5    A(1,2,8)              120.0125         estimate D2E/DX2                !
 ! A6    A(3,2,8)              119.9969         estimate D2E/DX2                !
 ! A7    A(2,3,4)              120.0034         estimate D2E/DX2                !
 ! A8    A(2,3,9)              119.9801         estimate D2E/DX2                !
 ! A9    A(4,3,9)              120.0163         estimate D2E/DX2                !
 ! A10   A(3,4,5)              119.473          estimate D2E/DX2                !
 ! A11   A(3,4,10)             120.0339         estimate D2E/DX2                !
 ! A12   A(5,4,10)             120.4928         estimate D2E/DX2                !
 ! A13   A(4,5,6)              120.5388         estimate D2E/DX2                !
 ! A14   A(4,5,13)             119.5122         estimate D2E/DX2                !
 ! A15   A(6,5,13)             119.9433         estimate D2E/DX2                !
 ! A16   A(1,6,5)              120.5129         estimate D2E/DX2                !
 ! A17   A(1,6,11)             119.4763         estimate D2E/DX2                !
 ! A18   A(5,6,11)             119.9912         estimate D2E/DX2                !
 ! A19   A(6,11,12)            109.4099         estimate D2E/DX2                !
 ! A20   A(11,12,15)           157.5768         estimate D2E/DX2                !
 ! A21   A(13,14,17)            96.3986         estimate D2E/DX2                !
 ! A22   A(12,15,16)           109.9547         estimate D2E/DX2                !
 ! A23   A(12,15,17)           101.3037         estimate D2E/DX2                !
 ! A24   A(16,15,17)           109.5            estimate D2E/DX2                !
 ! A25   A(14,17,15)           154.8648         estimate D2E/DX2                !
 ! A26   L(5,13,14,12,-1)      179.9995         estimate D2E/DX2                !
 ! A27   L(5,13,14,12,-2)      179.9997         estimate D2E/DX2                !
 ! D1    D(6,1,2,3)              0.3868         estimate D2E/DX2                !
 ! D2    D(6,1,2,8)           -179.7129         estimate D2E/DX2                !
 ! D3    D(7,1,2,3)            179.4726         estimate D2E/DX2                !
 ! D4    D(7,1,2,8)             -0.6271         estimate D2E/DX2                !
 ! D5    D(2,1,6,5)             -0.0163         estimate D2E/DX2                !
 ! D6    D(2,1,6,11)           178.3733         estimate D2E/DX2                !
 ! D7    D(7,1,6,5)           -179.0976         estimate D2E/DX2                !
 ! D8    D(7,1,6,11)            -0.7079         estimate D2E/DX2                !
 ! D9    D(1,2,3,4)             -0.2084         estimate D2E/DX2                !
 ! D10   D(1,2,3,9)            179.6522         estimate D2E/DX2                !
 ! D11   D(8,2,3,4)            179.8913         estimate D2E/DX2                !
 ! D12   D(8,2,3,9)             -0.2482         estimate D2E/DX2                !
 ! D13   D(2,3,4,5)             -0.339          estimate D2E/DX2                !
 ! D14   D(2,3,4,10)           179.8742         estimate D2E/DX2                !
 ! D15   D(9,3,4,5)            179.8006         estimate D2E/DX2                !
 ! D16   D(9,3,4,10)             0.0137         estimate D2E/DX2                !
 ! D17   D(3,4,5,6)              0.7135         estimate D2E/DX2                !
 ! D18   D(3,4,5,13)           179.8431         estimate D2E/DX2                !
 ! D19   D(10,4,5,6)          -179.5007         estimate D2E/DX2                !
 ! D20   D(10,4,5,13)           -0.371          estimate D2E/DX2                !
 ! D21   D(4,5,6,1)             -0.5386         estimate D2E/DX2                !
 ! D22   D(4,5,6,11)          -178.92           estimate D2E/DX2                !
 ! D23   D(13,5,6,1)          -179.6645         estimate D2E/DX2                !
 ! D24   D(13,5,6,11)            1.9541         estimate D2E/DX2                !
 ! D25   D(4,5,14,17)          172.1522         estimate D2E/DX2                !
 ! D26   D(6,5,14,17)           -8.713          estimate D2E/DX2                !
 ! D27   D(1,6,11,12)          177.0428         estimate D2E/DX2                !
 ! D28   D(5,6,11,12)           -4.559          estimate D2E/DX2                !
 ! D29   D(6,11,12,15)         135.9993         estimate D2E/DX2                !
 ! D30   D(11,12,15,16)        -30.7799         estimate D2E/DX2                !
 ! D31   D(11,12,15,17)       -146.5478         estimate D2E/DX2                !
 ! D32   D(13,14,17,15)         -0.9881         estimate D2E/DX2                !
 ! D33   D(12,15,17,14)         13.7449         estimate D2E/DX2                !
 ! D34   D(16,15,17,14)       -102.3583         estimate D2E/DX2                !
 --------------------------------------------------------------------------------
 Trust Radius=3.00D-01 FncErr=1.00D-07 GrdErr=1.00D-06
 Number of steps in this run=     89 maximum allowed number of steps=    102.
 GradGradGradGradGradGradGradGradGradGradGradGradGradGradGradGradGradGrad

                          Input orientation:                          
 ---------------------------------------------------------------------
 Center     Atomic      Atomic             Coordinates (Angstroms)
 Number     Number       Type             X           Y           Z
 ---------------------------------------------------------------------
      1          6           0       -1.682715    0.022394   -0.860863
      2          6           0       -0.269210    0.026384   -0.864875
      3          6           0        0.437824    0.894035   -0.000029
      4          6           0       -0.268960    1.760022    0.864858
      5          6           0       -1.675033    1.755046    0.851356
      6          6           0       -2.374793    0.891418    0.001586
      7          1           0       -2.215441   -0.624663   -1.517809
      8          1           0        0.263262   -0.624624   -1.517528
      9          1           0        1.502577    0.892948    0.000775
     10          1           0        0.262873    2.412043    1.517630
     11          8           0       -3.801472    0.912331   -0.019297
     12          1           0       -4.121899    1.518721    0.653981
     13          6           0       -2.448553    2.698678    1.798986
     14          7           0       -3.021298    3.397364    2.500640
     15          8           0       -5.044677    2.709953    1.311105
     16          1           0       -5.296368    3.341166    0.633004
     17          1           0       -4.420856    3.119849    1.914788
 ---------------------------------------------------------------------
                    Distance matrix (angstroms):
                    1          2          3          4          5
     1  C    0.000000
     2  C    1.413516   0.000000
     3  C    2.448975   1.414452   0.000000
     4  C    2.827749   2.448975   1.413332   0.000000
     5  C    2.435946   2.812482   2.435234   1.406147   0.000000
     6  C    1.406411   2.435676   2.812619   2.436030   1.399151
     7  H    1.064922   2.153602   3.413198   3.892636   3.401176
     8  H    2.153292   1.064563   2.153973   3.412559   3.877038
     9  H    3.412677   2.153952   1.064753   2.153323   3.400574
    10  H    3.892680   3.413328   2.153658   1.064935   2.151986
    11  O    2.447315   3.738553   4.239380   3.738844   2.447437
    12  H    3.237802   4.401955   4.648553   3.866243   2.466163
    13  C    3.850168   4.357390   3.850242   2.550352   1.544920
    14  N    4.947921   5.501289   4.948286   3.596114   2.688824
    15  O    4.821120   5.894193   5.922368   4.889680   3.532381
    16  H    5.128779   6.205138   6.266589   5.275282   3.959485
    17  H    4.979546   5.876412   5.676932   4.493298   3.245477
                    6          7          8          9         10
     6  C    0.000000
     7  H    2.152315   0.000000
     8  H    3.400798   2.478703   0.000000
     9  H    3.877370   4.293355   2.478743   0.000000
    10  H    3.401171   4.957571   4.293428   2.478985   0.000000
    11  O    1.426986   2.668966   4.596628   5.304122   4.596758
    12  H    1.967615   3.597965   5.342192   5.696753   4.557427
    13  C    2.549955   4.701071   5.421950   4.701665   2.741013
    14  N    3.597638   5.742302   6.565851   5.743420   3.566924
    15  O    3.485712   5.208358   6.877120   6.919899   5.319914
    16  H    3.864654   5.463141   7.159732   7.253905   5.705348
    17  H    3.579472   5.537865   6.909619   6.611323   4.753530
                   11         12         13         14         15
    11  O    0.000000
    12  H    0.961086   0.000000
    13  C    2.885755   2.345937   0.000000
    14  N    3.624106   2.854955   1.143904   0.000000
    15  O    2.558705   1.643887   2.641593   2.445728   0.000000
    16  H    2.925654   2.168208   3.143621   2.944005   0.960000
    17  H    2.999577   2.059763   2.020093   1.542401   0.960000
                   16         17
    16  H    0.000000
    17  H    1.567952   0.000000
 Stoichiometry    C7H7NO2
 Framework group  C1[X(C7H7NO2)]
 Deg. of freedom    45
 Full point group                 C1      NOp   1
 Largest Abelian subgroup         C1      NOp   1
 Largest concise Abelian subgroup C1      NOp   1
                         Standard orientation:                         
 ---------------------------------------------------------------------
 Center     Atomic      Atomic             Coordinates (Angstroms)
 Number     Number       Type             X           Y           Z
 ---------------------------------------------------------------------
      1          6           0       -1.652573   -1.351206   -0.033355
      2          6           0       -2.769019   -0.488528    0.052443
      3          6           0       -2.578747    0.912605    0.088462
      4          6           0       -1.272278    1.449810    0.043115
      5          6           0       -0.169139    0.580955   -0.030529
      6          6           0       -0.357278   -0.804808   -0.074005
      7          1           0       -1.794937   -2.406405   -0.052026
      8          1           0       -3.753050   -0.893112    0.088351
      9          1           0       -3.420117    1.562458    0.147502
     10          1           0       -1.128558    2.504705    0.068184
     11          8           0        0.771266   -1.676608   -0.125394
     12          1           0        1.575196   -1.154592   -0.195254
     13          6           0        1.259198    1.167293   -0.083818
     14          7           0        2.316784    1.601427   -0.123281
     15          8           0        3.121130   -0.695081    0.123025
     16          1           0        3.344050   -0.903437    1.033241
     17          1           0        3.059783    0.257189    0.018050
 ---------------------------------------------------------------------
 Rotational constants (GHZ):      2.5716812      0.9336073      0.6889868
 Standard basis: Aug-CC-pVTZ (5D, 7F)
 There are   725 symmetry adapted cartesian basis functions of A   symmetry.
 There are   621 symmetry adapted basis functions of A   symmetry.
   621 basis functions,   909 primitive gaussians,   725 cartesian basis functions
    36 alpha electrons       36 beta electrons
       nuclear repulsion energy       478.8149334897 Hartrees.
 NAtoms=   17 NActive=   17 NUniq=   17 SFac= 1.00D+00 NAtFMM=   60 NAOKFM=F Big=F
 Integral buffers will be    131072 words long.
 Raffenetti 2 integral format.
 Two-electron integral symmetry is turned on.
 Nuclear repulsion after empirical dispersion term =      478.8030372051 Hartrees.
 One-electron integrals computed using PRISM.
 NBasis=   621 RedAO= T EigKep=  1.29D-06  NBF=   621
 NBsUse=   619 1.00D-06 EigRej=  8.87D-07 NBFU=   619
 ExpMin= 2.53D-02 ExpMax= 1.53D+04 ExpMxC= 5.22D+02 IAcc=3 IRadAn=         5 AccDes= 0.00D+00
 Harris functional with IExCor=  402 and IRadAn=       5 diagonalized for initial guess.
 HarFok:  IExCor=  402 AccDes= 0.00D+00 IRadAn=         5 IDoV= 1 UseB2=F ITyADJ=14
 ICtDFT=  3500011 ScaDFX=  1.000000  1.000000  1.000000  1.000000
 FoFCou: FMM=F IPFlag=           0 FMFlag=      100000 FMFlg1=           0
         NFxFlg=           0 DoJE=T BraDBF=F KetDBF=T FulRan=T
         wScrn=  0.000000 ICntrl=     500 IOpCl=  0 I1Cent=   200000004 NGrid=           0
         NMat0=    1 NMatS0=      1 NMatT0=    0 NMatD0=    1 NMtDS0=    0 NMtDT0=    0
 Petite list used in FoFCou.
 Requested convergence on RMS density matrix=1.00D-08 within 128 cycles.
 Requested convergence on MAX density matrix=1.00D-06.
 Requested convergence on             energy=1.00D-06.
 No special actions if energy rises.
 SCF Done:  E(RB3LYP) =  -476.322147264     A.U. after   13 cycles
            NFock= 13  Conv=0.46D-08     -V/T= 2.0063

 **********************************************************************

            Population analysis using the SCF density.

 **********************************************************************

 Orbital symmetries:
       Occupied  (A) (A) (A) (A) (A) (A) (A) (A) (A) (A) (A) (A)
                 (A) (A) (A) (A) (A) (A) (A) (A) (A) (A) (A) (A)
                 (A) (A) (A) (A) (A) (A) (A) (A) (A) (A) (A) (A)
       Virtual   (A) (A) (A) (A) (A) (A) (A) (A) (A) (A) (A) (A)
                 (A) (A) (A) (A) (A) (A) (A) (A) (A) (A) (A) (A)
                 (A) (A) (A) (A) (A) (A) (A) (A) (A) (A) (A) (A)
                 (A) (A) (A) (A) (A) (A) (A) (A) (A) (A) (A) (A)
                 (A) (A) (A) (A) (A) (A) (A) (A) (A) (A) (A) (A)
                 (A) (A) (A) (A) (A) (A) (A) (A) (A) (A) (A) (A)
                 (A) (A) (A) (A) (A) (A) (A) (A) (A) (A) (A) (A)
                 (A) (A) (A) (A) (A) (A) (A) (A) (A) (A) (A) (A)
                 (A) (A) (A) (A) (A) (A) (A) (A) (A) (A) (A) (A)
                 (A) (A) (A) (A) (A) (A) (A) (A) (A) (A) (A) (A)
                 (A) (A) (A) (A) (A) (A) (A) (A) (A) (A) (A) (A)
                 (A) (A) (A) (A) (A) (A) (A) (A) (A) (A) (A) (A)
                 (A) (A) (A) (A) (A) (A) (A) (A) (A) (A) (A) (A)
                 (A) (A) (A) (A) (A) (A) (A) (A) (A) (A) (A) (A)
                 (A) (A) (A) (A) (A) (A) (A) (A) (A) (A) (A) (A)
                 (A) (A) (A) (A) (A) (A) (A) (A) (A) (A) (A) (A)
                 (A) (A) (A) (A) (A) (A) (A) (A) (A) (A) (A) (A)
                 (A) (A) (A) (A) (A) (A) (A) (A) (A) (A) (A) (A)
                 (A) (A) (A) (A) (A) (A) (A) (A) (A) (A) (A) (A)
                 (A) (A) (A) (A) (A) (A) (A) (A) (A) (A) (A) (A)
                 (A) (A) (A) (A) (A) (A) (A) (A) (A) (A) (A) (A)
                 (A) (A) (A) (A) (A) (A) (A) (A) (A) (A) (A) (A)
                 (A) (A) (A) (A) (A) (A) (A) (A) (A) (A) (A) (A)
                 (A) (A) (A) (A) (A) (A) (A) (A) (A) (A) (A) (A)
                 (A) (A) (A) (A) (A) (A) (A) (A) (A) (A) (A) (A)
                 (A) (A) (A) (A) (A) (A) (A) (A) (A) (A) (A) (A)
                 (A) (A) (A) (A) (A) (A) (A) (A) (A) (A) (A) (A)
                 (A) (A) (A) (A) (A) (A) (A) (A) (A) (A) (A) (A)
                 (A) (A) (A) (A) (A) (A) (A) (A) (A) (A) (A) (A)
                 (A) (A) (A) (A) (A) (A) (A) (A) (A) (A) (A) (A)
                 (A) (A) (A) (A) (A) (A) (A) (A) (A) (A) (A) (A)
                 (A) (A) (A) (A) (A) (A) (A) (A) (A) (A) (A) (A)
                 (A) (A) (A) (A) (A) (A) (A) (A) (A) (A) (A) (A)
                 (A) (A) (A) (A) (A) (A) (A) (A) (A) (A) (A) (A)
                 (A) (A) (A) (A) (A) (A) (A) (A) (A) (A) (A) (A)
                 (A) (A) (A) (A) (A) (A) (A) (A) (A) (A) (A) (A)
                 (A) (A) (A) (A) (A) (A) (A) (A) (A) (A) (A) (A)
                 (A) (A) (A) (A) (A) (A) (A) (A) (A) (A) (A) (A)
                 (A) (A) (A) (A) (A) (A) (A) (A) (A) (A) (A) (A)
                 (A) (A) (A) (A) (A) (A) (A) (A) (A) (A) (A) (A)
                 (A) (A) (A) (A) (A) (A) (A) (A) (A) (A) (A) (A)
                 (A) (A) (A) (A) (A) (A) (A) (A) (A) (A) (A) (A)
                 (A) (A) (A) (A) (A) (A) (A) (A) (A) (A) (A) (A)
                 (A) (A) (A) (A) (A) (A) (A) (A) (A) (A) (A) (A)
                 (A) (A) (A) (A) (A) (A) (A) (A) (A) (A) (A) (A)
                 (A) (A) (A) (A) (A) (A) (A) (A) (A) (A) (A) (A)
                 (A) (A) (A) (A) (A) (A) (A) (A) (A) (A) (A) (A)
                 (A) (A) (A) (A) (A) (A) (A) (A) (A) (A) (A) (A)
                 (A) (A) (A) (A) (A) (A) (A)
 The electronic state is 1-A.
 Alpha  occ. eigenvalues --  -19.15082 -19.13055 -14.34529 -10.27559 -10.25635
 Alpha  occ. eigenvalues --  -10.25060 -10.22092 -10.21400 -10.20515 -10.20483
 Alpha  occ. eigenvalues --   -1.04986  -1.02483  -0.95231  -0.88185  -0.79072
 Alpha  occ. eigenvalues --   -0.76880  -0.66420  -0.63651  -0.58130  -0.56543
 Alpha  occ. eigenvalues --   -0.54231  -0.50891  -0.47930  -0.46896  -0.43707
 Alpha  occ. eigenvalues --   -0.42848  -0.41180  -0.40809  -0.39166  -0.38713
 Alpha  occ. eigenvalues --   -0.37355  -0.36021  -0.35375  -0.31928  -0.28855
 Alpha  occ. eigenvalues --   -0.25480
 Alpha virt. eigenvalues --   -0.06931  -0.03629  -0.01825  -0.01586  -0.00707
 Alpha virt. eigenvalues --    0.00111   0.01452   0.02359   0.02435   0.03113
 Alpha virt. eigenvalues --    0.03496   0.04172   0.04854   0.05300   0.05687
 Alpha virt. eigenvalues --    0.05991   0.06655   0.07060   0.07525   0.08098
 Alpha virt. eigenvalues --    0.08263   0.09113   0.09342   0.09562   0.09702
 Alpha virt. eigenvalues --    0.09923   0.10404   0.10745   0.11123   0.12171
 Alpha virt. eigenvalues --    0.12886   0.13286   0.13848   0.13873   0.14945
 Alpha virt. eigenvalues --    0.15038   0.15980   0.16467   0.16652   0.16875
 Alpha virt. eigenvalues --    0.17630   0.18349   0.18547   0.19033   0.19325
 Alpha virt. eigenvalues --    0.19704   0.20009   0.20192   0.20369   0.20900
 Alpha virt. eigenvalues --    0.21500   0.21593   0.22103   0.22303   0.22901
 Alpha virt. eigenvalues --    0.23197   0.23569   0.24585   0.25558   0.25971
 Alpha virt. eigenvalues --    0.26459   0.26908   0.27346   0.27709   0.28715
 Alpha virt. eigenvalues --    0.28918   0.29160   0.30206   0.30652   0.31297
 Alpha virt. eigenvalues --    0.31914   0.32351   0.33138   0.33338   0.33635
 Alpha virt. eigenvalues --    0.34549   0.34703   0.34820   0.35716   0.35810
 Alpha virt. eigenvalues --    0.36244   0.36565   0.37065   0.37627   0.38181
 Alpha virt. eigenvalues --    0.38286   0.38861   0.39338   0.40511   0.40844
 Alpha virt. eigenvalues --    0.41515   0.41810   0.42069   0.42755   0.43070
 Alpha virt. eigenvalues --    0.43348   0.43535   0.44146   0.44814   0.45322
 Alpha virt. eigenvalues --    0.45455   0.47097   0.47882   0.49002   0.50114
 Alpha virt. eigenvalues --    0.50396   0.50752   0.51676   0.52166   0.52599
 Alpha virt. eigenvalues --    0.53352   0.53804   0.54146   0.54914   0.55118
 Alpha virt. eigenvalues --    0.55605   0.56270   0.56548   0.57090   0.58526
 Alpha virt. eigenvalues --    0.59813   0.60832   0.61095   0.61545   0.63214
 Alpha virt. eigenvalues --    0.64039   0.64227   0.65173   0.65700   0.66807
 Alpha virt. eigenvalues --    0.67378   0.67788   0.68160   0.68958   0.69344
 Alpha virt. eigenvalues --    0.70127   0.70636   0.71073   0.71549   0.71658
 Alpha virt. eigenvalues --    0.72240   0.72603   0.73608   0.73949   0.74111
 Alpha virt. eigenvalues --    0.75130   0.75244   0.76340   0.76493   0.77753
 Alpha virt. eigenvalues --    0.79028   0.79735   0.80172   0.80584   0.81222
 Alpha virt. eigenvalues --    0.81687   0.82106   0.83018   0.83255   0.83963
 Alpha virt. eigenvalues --    0.85012   0.85832   0.86472   0.86716   0.87516
 Alpha virt. eigenvalues --    0.87982   0.88107   0.88756   0.89520   0.89998
 Alpha virt. eigenvalues --    0.90869   0.91489   0.91931   0.92287   0.92736
 Alpha virt. eigenvalues --    0.93458   0.93804   0.94914   0.95743   0.95964
 Alpha virt. eigenvalues --    0.96401   0.97945   0.98310   0.98711   0.99073
 Alpha virt. eigenvalues --    1.00312   1.00816   1.01412   1.02051   1.02299
 Alpha virt. eigenvalues --    1.02944   1.03467   1.03844   1.03944   1.04602
 Alpha virt. eigenvalues --    1.04865   1.05785   1.05921   1.07035   1.07642
 Alpha virt. eigenvalues --    1.08811   1.09388   1.11237   1.11969   1.12855
 Alpha virt. eigenvalues --    1.14255   1.14825   1.16310   1.16633   1.17456
 Alpha virt. eigenvalues --    1.17912   1.18480   1.19081   1.19905   1.21487
 Alpha virt. eigenvalues --    1.22432   1.22844   1.23555   1.23769   1.24446
 Alpha virt. eigenvalues --    1.26420   1.27058   1.27947   1.28801   1.30002
 Alpha virt. eigenvalues --    1.31226   1.32123   1.32549   1.33410   1.34195
 Alpha virt. eigenvalues --    1.34346   1.35339   1.36462   1.37528   1.39357
 Alpha virt. eigenvalues --    1.39977   1.40400   1.41489   1.42707   1.42882
 Alpha virt. eigenvalues --    1.44147   1.44982   1.46738   1.47894   1.48477
 Alpha virt. eigenvalues --    1.48890   1.49989   1.51381   1.51975   1.52988
 Alpha virt. eigenvalues --    1.54387   1.55605   1.56437   1.57822   1.58841
 Alpha virt. eigenvalues --    1.59393   1.60471   1.61077   1.61739   1.62383
 Alpha virt. eigenvalues --    1.63626   1.65122   1.66130   1.66526   1.67147
 Alpha virt. eigenvalues --    1.68630   1.68848   1.69240   1.71164   1.72330
 Alpha virt. eigenvalues --    1.73327   1.73815   1.75368   1.76131   1.77139
 Alpha virt. eigenvalues --    1.78046   1.78314   1.79682   1.80304   1.81805
 Alpha virt. eigenvalues --    1.82763   1.82987   1.83662   1.84393   1.86416
 Alpha virt. eigenvalues --    1.86807   1.87623   1.89165   1.90711   1.91659
 Alpha virt. eigenvalues --    1.93064   1.93650   1.94358   1.95284   1.97104
 Alpha virt. eigenvalues --    1.97749   1.98699   2.00959   2.02938   2.03337
 Alpha virt. eigenvalues --    2.04613   2.06825   2.07255   2.09882   2.12129
 Alpha virt. eigenvalues --    2.12629   2.13502   2.13801   2.15806   2.17091
 Alpha virt. eigenvalues --    2.18047   2.18754   2.19832   2.21954   2.24074
 Alpha virt. eigenvalues --    2.24773   2.25905   2.26365   2.28149   2.29458
 Alpha virt. eigenvalues --    2.30424   2.31116   2.32286   2.34668   2.35627
 Alpha virt. eigenvalues --    2.36605   2.38990   2.39538   2.41416   2.42181
 Alpha virt. eigenvalues --    2.44017   2.45484   2.46087   2.46642   2.48809
 Alpha virt. eigenvalues --    2.50275   2.51366   2.52895   2.56834   2.57365
 Alpha virt. eigenvalues --    2.59821   2.62958   2.63798   2.64639   2.66790
 Alpha virt. eigenvalues --    2.68512   2.70423   2.71665   2.73371   2.75930
 Alpha virt. eigenvalues --    2.77321   2.78818   2.80275   2.83587   2.85338
 Alpha virt. eigenvalues --    2.87141   2.88270   2.89766   2.91480   2.91940
 Alpha virt. eigenvalues --    2.93226   2.95725   2.97137   2.97566   3.00301
 Alpha virt. eigenvalues --    3.01029   3.02742   3.03040   3.06049   3.07029
 Alpha virt. eigenvalues --    3.08961   3.10333   3.12111   3.12871   3.13350
 Alpha virt. eigenvalues --    3.16003   3.16673   3.18420   3.19559   3.21230
 Alpha virt. eigenvalues --    3.23006   3.24359   3.24630   3.25277   3.26861
 Alpha virt. eigenvalues --    3.27563   3.29723   3.29947   3.31456   3.32446
 Alpha virt. eigenvalues --    3.33456   3.34061   3.37865   3.38726   3.40606
 Alpha virt. eigenvalues --    3.41981   3.43139   3.44199   3.46956   3.47812
 Alpha virt. eigenvalues --    3.49316   3.50156   3.51404   3.52201   3.53733
 Alpha virt. eigenvalues --    3.54160   3.55332   3.56416   3.57514   3.60670
 Alpha virt. eigenvalues --    3.61206   3.62650   3.63328   3.64349   3.64791
 Alpha virt. eigenvalues --    3.66195   3.67363   3.69524   3.70582   3.72045
 Alpha virt. eigenvalues --    3.73945   3.75250   3.76744   3.77965   3.79007
 Alpha virt. eigenvalues --    3.79529   3.80783   3.82916   3.83946   3.87662
 Alpha virt. eigenvalues --    3.88217   3.89067   3.90416   3.90841   3.91497
 Alpha virt. eigenvalues --    3.93595   3.94965   3.96134   3.96634   3.97531
 Alpha virt. eigenvalues --    3.98313   4.00750   4.02294   4.03193   4.05323
 Alpha virt. eigenvalues --    4.06065   4.06569   4.08494   4.09084   4.10348
 Alpha virt. eigenvalues --    4.11002   4.12470   4.14185   4.17276   4.18973
 Alpha virt. eigenvalues --    4.20413   4.23570   4.24156   4.25284   4.26742
 Alpha virt. eigenvalues --    4.28317   4.30453   4.31422   4.31812   4.33053
 Alpha virt. eigenvalues --    4.34047   4.35911   4.38572   4.41924   4.42134
 Alpha virt. eigenvalues --    4.42937   4.43068   4.44283   4.45260   4.50244
 Alpha virt. eigenvalues --    4.52212   4.53342   4.54517   4.56283   4.58862
 Alpha virt. eigenvalues --    4.60545   4.62045   4.62806   4.64162   4.65549
 Alpha virt. eigenvalues --    4.67155   4.70805   4.72662   4.75490   4.77945
 Alpha virt. eigenvalues --    4.78654   4.78666   4.79527   4.81262   4.81683
 Alpha virt. eigenvalues --    4.84184   4.86471   4.89187   4.90094   4.91510
 Alpha virt. eigenvalues --    4.92619   4.94964   4.96043   4.99460   5.02383
 Alpha virt. eigenvalues --    5.03457   5.05239   5.06159   5.10413   5.14011
 Alpha virt. eigenvalues --    5.16741   5.18088   5.19217   5.23086   5.26293
 Alpha virt. eigenvalues --    5.27836   5.31044   5.31610   5.34768   5.36268
 Alpha virt. eigenvalues --    5.38747   5.39176   5.45105   5.47452   5.55743
 Alpha virt. eigenvalues --    5.61426   5.63417   5.66934   5.71662   5.73392
 Alpha virt. eigenvalues --    5.76727   5.77200   5.84127   5.87539   5.90686
 Alpha virt. eigenvalues --    5.95326   6.01060   6.05929   6.09546   6.11392
 Alpha virt. eigenvalues --    6.17415   6.21858   6.26621   6.32394   6.35039
 Alpha virt. eigenvalues --    6.42257   6.46098   6.49211   6.51720   6.54969
 Alpha virt. eigenvalues --    6.58040   6.61417   6.64514   6.78654   6.83510
 Alpha virt. eigenvalues --    6.88305   6.91450   6.93362   6.99394   7.02910
 Alpha virt. eigenvalues --    7.04853   7.13426   7.18814   7.23803   7.31960
 Alpha virt. eigenvalues --    7.36751   7.50531   7.62182   7.67065   7.86248
 Alpha virt. eigenvalues --    7.95743   8.33161   8.55985  14.50880  14.93085
 Alpha virt. eigenvalues --   15.55691  16.47680  17.08452  17.87457  18.11903
 Alpha virt. eigenvalues --   18.47824  19.12248  20.03649
          Condensed to atoms (all electrons):
               1          2          3          4          5          6
     1  C    6.983526   0.024866   0.151633  -0.447841   0.144112  -0.402205
     2  C    0.024866   6.483849  -0.178727   0.217324  -0.323158   0.032148
     3  C    0.151633  -0.178727   6.480389   0.076042  -0.063115  -0.170782
     4  C   -0.447841   0.217324   0.076042   8.018014  -0.678757   0.279376
     5  C    0.144112  -0.323158  -0.063115  -0.678757   6.143287  -0.311397
     6  C   -0.402205   0.032148  -0.170782   0.279376  -0.311397   6.448527
     7  H    0.259357  -0.163183   0.003641   0.020956   0.016952  -0.058357
     8  H   -0.267689   0.405002  -0.196521   0.061820  -0.053263   0.105161
     9  H    0.052390  -0.236075   0.401687  -0.238833   0.064635  -0.016450
    10  H    0.017672   0.009068  -0.266366   0.186432   0.019769  -0.021592
    11  O    0.023510   0.016473   0.000216  -0.005235  -0.097644  -0.105773
    12  H   -0.095983   0.007481  -0.000966   0.030767  -0.042586   0.125697
    13  C    0.118517   0.015663  -0.027817  -0.438156   0.016996  -0.229839
    14  N   -0.009513   0.003006   0.006425  -0.012157   0.030146  -0.000175
    15  O   -0.015252   0.001442  -0.001384  -0.004677   0.032269   0.009192
    16  H    0.001983   0.000426   0.000137  -0.001787  -0.018152   0.010628
    17  H    0.003069  -0.000645   0.002311  -0.007250  -0.057826  -0.019537
               7          8          9         10         11         12
     1  C    0.259357  -0.267689   0.052390   0.017672   0.023510  -0.095983
     2  C   -0.163183   0.405002  -0.236075   0.009068   0.016473   0.007481
     3  C    0.003641  -0.196521   0.401687  -0.266366   0.000216  -0.000966
     4  C    0.020956   0.061820  -0.238833   0.186432  -0.005235   0.030767
     5  C    0.016952  -0.053263   0.064635   0.019769  -0.097644  -0.042586
     6  C   -0.058357   0.105161  -0.016450  -0.021592  -0.105773   0.125697
     7  H    0.567084   0.013023  -0.002409   0.001475   0.010792  -0.001146
     8  H    0.013023   0.597269  -0.029122  -0.005387  -0.003957   0.000762
     9  H   -0.002409  -0.029122   0.605255   0.030415   0.000603  -0.000115
    10  H    0.001475  -0.005387   0.030415   0.689184   0.002310  -0.000790
    11  O    0.010792  -0.003957   0.000603   0.002310   8.860208  -0.007949
    12  H   -0.001146   0.000762  -0.000115  -0.000790  -0.007949   0.737478
    13  C   -0.000174  -0.005567   0.004494   0.060395   0.049624  -0.000053
    14  N   -0.000824   0.000520  -0.000599  -0.021742  -0.018353   0.012383
    15  O   -0.000060  -0.000041  -0.000037  -0.000874  -0.099023  -0.007251
    16  H   -0.000363   0.000027   0.000009  -0.000082   0.025102   0.013044
    17  H   -0.000297  -0.000015  -0.000010   0.000414   0.004109  -0.004914
              13         14         15         16         17
     1  C    0.118517  -0.009513  -0.015252   0.001983   0.003069
     2  C    0.015663   0.003006   0.001442   0.000426  -0.000645
     3  C   -0.027817   0.006425  -0.001384   0.000137   0.002311
     4  C   -0.438156  -0.012157  -0.004677  -0.001787  -0.007250
     5  C    0.016996   0.030146   0.032269  -0.018152  -0.057826
     6  C   -0.229839  -0.000175   0.009192   0.010628  -0.019537
     7  H   -0.000174  -0.000824  -0.000060  -0.000363  -0.000297
     8  H   -0.005567   0.000520  -0.000041   0.000027  -0.000015
     9  H    0.004494  -0.000599  -0.000037   0.000009  -0.000010
    10  H    0.060395  -0.021742  -0.000874  -0.000082   0.000414
    11  O    0.049624  -0.018353  -0.099023   0.025102   0.004109
    12  H   -0.000053   0.012383  -0.007251   0.013044  -0.004914
    13  C    5.997355   0.096666  -0.081604   0.016509   0.083014
    14  N    0.096666   7.673121  -0.024746  -0.016433  -0.079067
    15  O   -0.081604  -0.024746   8.312465   0.122683   0.080445
    16  H    0.016509  -0.016433   0.122683   0.672097   0.071312
    17  H    0.083014  -0.079067   0.080445   0.071312   0.717178
 Mulliken charges:
               1
     1  C   -0.542151
     2  C   -0.314960
     3  C   -0.216800
     4  C   -1.056039
     5  C    1.177732
     6  C    0.325380
     7  H    0.333532
     8  H    0.377977
     9  H    0.364160
    10  H    0.299699
    11  O   -0.655012
    12  H    0.234142
    13  C    0.323975
    14  N   -0.638657
    15  O   -0.323548
    16  H    0.102860
    17  H    0.207710
 Sum of Mulliken charges =   0.00000
 Mulliken charges with hydrogens summed into heavy atoms:
               1
     1  C   -0.208619
     2  C    0.063017
     3  C    0.147360
     4  C   -0.756339
     5  C    1.177732
     6  C    0.325380
    11  O   -0.420870
    13  C    0.323975
    14  N   -0.638657
    15  O   -0.012978
 Electronic spatial extent (au):  <R**2>=           1572.2155
 Charge=              0.0000 electrons
 Dipole moment (field-independent basis, Debye):
    X=             -3.2878    Y=              0.8116    Z=              1.3953  Tot=              3.6627
 Quadrupole moment (field-independent basis, Debye-Ang):
   XX=            -56.4515   YY=            -60.2162   ZZ=            -59.5162
   XY=             -1.2962   XZ=              4.6527   YZ=             -1.2253
 Traceless Quadrupole moment (field-independent basis, Debye-Ang):
   XX=              2.2765   YY=             -1.4882   ZZ=             -0.7883
   XY=             -1.2962   XZ=              4.6527   YZ=             -1.2253
 Octapole moment (field-independent basis, Debye-Ang**2):
  XXX=            -20.4192  YYY=             -4.4156  ZZZ=              2.7349  XYY=            -15.7317
  XXY=            -13.4921  XXZ=             19.1557  XZZ=             18.2416  YZZ=             -5.1505
  YYZ=              3.0340  XYZ=             -5.0139
 Hexadecapole moment (field-independent basis, Debye-Ang**3):
 XXXX=          -1396.0751 YYYY=           -554.8215 ZZZZ=            -69.9431 XXXY=            -30.3775
 XXXZ=             60.0251 YYYX=            -24.2180 YYYZ=             -0.9983 ZZZX=             12.3402
 ZZZY=             -3.1502 XXYY=           -338.7914 XXZZ=           -247.4163 YYZZ=           -110.2605
 XXYZ=            -15.3734 YYXZ=              7.5866 ZZXY=             -9.9971
 N-N= 4.788030372051D+02 E-N=-2.068812260682D+03  KE= 4.733302341270D+02
 Calling FoFJK, ICntrl=      2127 FMM=F ISym2X=0 I1Cent= 0 IOpClX= 0 NMat=1 NMatS=1 NMatT=0.
 ***** Axes restored to original set *****
 -------------------------------------------------------------------
 Center     Atomic                   Forces (Hartrees/Bohr)
 Number     Number              X              Y              Z
 -------------------------------------------------------------------
      1        6           0.022566645    0.014230305    0.012589971
      2        6          -0.021293414    0.021513046    0.022163241
      3        6          -0.029166520    0.002505600    0.002808118
      4        6          -0.002006097   -0.019945398   -0.020598462
      5        6          -0.011587969    0.030191577    0.032857570
      6        6          -0.053586490   -0.001229307   -0.005639181
      7        1          -0.008378233   -0.005214913   -0.004669245
      8        1           0.005047860   -0.007180917   -0.007123286
      9        1           0.010756958    0.000803733    0.000756722
     10        1           0.004369065    0.006883549    0.006885858
     11        8           0.069439165   -0.027909550   -0.019940784
     12        1          -0.016632691    0.014021064    0.008125168
     13        6           0.058180407   -0.046299308   -0.042443113
     14        7           0.016774595    0.015123353    0.021581412
     15        8          -0.035383887   -0.011946437   -0.013487357
     16        1          -0.000127145    0.002197144    0.001876414
     17        1          -0.008972248    0.012256461    0.004256954
 -------------------------------------------------------------------
 Cartesian Forces:  Max     0.069439165 RMS     0.022645643

 GradGradGradGradGradGradGradGradGradGradGradGradGradGradGradGradGradGrad
 Berny optimization.
 FormGI is forming the generalized inverse of G from B-inverse, IUseBI=4.
 Internal  Forces:  Max     0.059395972 RMS     0.013517651
 Search for a local minimum.
 Step number   1 out of a maximum of   89
 All quantities printed in internal units (Hartrees-Bohrs-Radians)
 Mixed Optimization -- RFO/linear search
 Second derivative matrix not updated -- first step.
 ITU=  0
     Eigenvalues ---    0.00487   0.00787   0.01335   0.01652   0.01806
     Eigenvalues ---    0.01903   0.01906   0.01907   0.01929   0.01959
     Eigenvalues ---    0.01963   0.01970   0.03695   0.07257   0.08111
     Eigenvalues ---    0.10244   0.10571   0.12026   0.15998   0.16000
     Eigenvalues ---    0.16000   0.16000   0.18057   0.20054   0.22000
     Eigenvalues ---    0.22034   0.22691   0.24114   0.24683   0.27722
     Eigenvalues ---    0.37878   0.37879   0.37901   0.37926   0.39729
     Eigenvalues ---    0.40210   0.40887   0.43411   0.44102   0.44114
     Eigenvalues ---    0.44727   0.53643   0.54964   0.55473   1.34934
 RFO step:  Lambda=-4.50348280D-02 EMin= 4.86595533D-03
 Linear search not attempted -- first point.
 Maximum step size (   0.300) exceeded in Quadratic search.
    -- Step size scaled by   0.709
 Iteration  1 RMS(Cart)=  0.04788120 RMS(Int)=  0.00090302
 Iteration  2 RMS(Cart)=  0.00118016 RMS(Int)=  0.00026894
 Iteration  3 RMS(Cart)=  0.00000176 RMS(Int)=  0.00026894
 Iteration  4 RMS(Cart)=  0.00000000 RMS(Int)=  0.00026894
 Variable       Old X    -DE/DX   Delta X   Delta X   Delta X     New X
                                 (Linear)    (Quad)   (Total)
    R1        2.67116  -0.02109   0.00000  -0.03232  -0.03225   2.63890
    R2        2.65773  -0.01740   0.00000  -0.02450  -0.02447   2.63326
    R3        2.01241   0.01024   0.00000   0.01713   0.01713   2.02955
    R4        2.67293  -0.01685   0.00000  -0.02677  -0.02674   2.64619
    R5        2.01173   0.01128   0.00000   0.01886   0.01886   2.03059
    R6        2.67081  -0.02542   0.00000  -0.03822  -0.03824   2.63257
    R7        2.01209   0.01076   0.00000   0.01799   0.01799   2.03008
    R8        2.65723  -0.01117   0.00000  -0.01503  -0.01509   2.64214
    R9        2.01244   0.01062   0.00000   0.01777   0.01777   2.03020
   R10        2.64401   0.00593   0.00000   0.01044   0.01033   2.65434
   R11        2.91948  -0.05940   0.00000  -0.12813  -0.12838   2.79110
   R12        2.69661  -0.04738   0.00000  -0.07359  -0.07343   2.62318
   R13        1.81619   0.02901   0.00000   0.03390   0.03416   1.85035
   R14        3.10650   0.00942   0.00000   0.04789   0.04809   3.15459
   R15        2.16167   0.02405   0.00000   0.01214   0.01189   2.17356
   R16        2.91471   0.04063   0.00000   0.19565   0.19560   3.11031
   R17        1.81414   0.00015   0.00000   0.00018   0.00018   1.81432
   R18        1.81414   0.03653   0.00000   0.04320   0.04325   1.85739
    A1        2.08527   0.00225   0.00000   0.00612   0.00619   2.09147
    A2        2.09464   0.00265   0.00000   0.01003   0.01000   2.10463
    A3        2.10316  -0.00490   0.00000  -0.01611  -0.01615   2.08702
    A4        2.09423   0.00659   0.00000   0.01324   0.01332   2.10755
    A5        2.09461  -0.00399   0.00000  -0.00901  -0.00905   2.08557
    A6        2.09434  -0.00261   0.00000  -0.00423  -0.00427   2.09007
    A7        2.09445  -0.00049   0.00000  -0.00480  -0.00481   2.08964
    A8        2.09405   0.00136   0.00000   0.00626   0.00626   2.10031
    A9        2.09468  -0.00087   0.00000  -0.00145  -0.00145   2.09323
   A10        2.08520  -0.00075   0.00000  -0.00016  -0.00027   2.08493
   A11        2.09499   0.00146   0.00000   0.00384   0.00389   2.09888
   A12        2.10300  -0.00071   0.00000  -0.00367  -0.00362   2.09938
   A13        2.10380   0.00220   0.00000   0.00716   0.00720   2.11100
   A14        2.08588  -0.00500   0.00000  -0.01849  -0.01827   2.06761
   A15        2.09341   0.00280   0.00000   0.01138   0.01111   2.10451
   A16        2.10335  -0.00979   0.00000  -0.02150  -0.02158   2.08177
   A17        2.08525  -0.01202   0.00000  -0.03386  -0.03388   2.05137
   A18        2.09424   0.02181   0.00000   0.05543   0.05553   2.14977
   A19        1.90956   0.00554   0.00000   0.02597   0.02663   1.93619
   A20        2.75023   0.01530   0.00000   0.04170   0.04173   2.79196
   A21        1.68247   0.01319   0.00000   0.06071   0.06001   1.74249
   A22        1.91907   0.00383   0.00000   0.00948   0.00875   1.92782
   A23        1.76808  -0.01555   0.00000  -0.05239  -0.05224   1.71585
   A24        1.91114  -0.00131   0.00000  -0.01091  -0.01080   1.90033
   A25        2.70290  -0.00266   0.00000   0.00063   0.00071   2.70361
   A26        3.14158  -0.01285   0.00000  -0.06124  -0.06190   3.07968
   A27        3.14159  -0.00105   0.00000   0.01339   0.01346   3.15505
    D1        0.00675  -0.00012   0.00000  -0.00218  -0.00220   0.00455
    D2       -3.13658   0.00008   0.00000  -0.00127  -0.00130  -3.13788
    D3        3.13239  -0.00021   0.00000   0.00109   0.00113   3.13351
    D4       -0.01095  -0.00001   0.00000   0.00200   0.00203  -0.00892
    D5       -0.00029  -0.00062   0.00000  -0.00120  -0.00111  -0.00139
    D6        3.11320  -0.00042   0.00000   0.00254   0.00252   3.11572
    D7       -3.12584  -0.00061   0.00000  -0.00473  -0.00464  -3.13048
    D8       -0.01236  -0.00040   0.00000  -0.00099  -0.00101  -0.01337
    D9       -0.00364   0.00041   0.00000   0.00195   0.00193  -0.00170
   D10        3.13552   0.00014   0.00000   0.00160   0.00160   3.13712
   D11        3.13970   0.00022   0.00000   0.00104   0.00103   3.14073
   D12       -0.00433  -0.00006   0.00000   0.00069   0.00070  -0.00363
   D13       -0.00592   0.00003   0.00000   0.00166   0.00167  -0.00425
   D14        3.13940  -0.00056   0.00000  -0.00094  -0.00090   3.13849
   D15        3.13811   0.00030   0.00000   0.00200   0.00199   3.14010
   D16        0.00024  -0.00029   0.00000  -0.00060  -0.00058  -0.00034
   D17        0.01245  -0.00079   0.00000  -0.00504  -0.00500   0.00745
   D18        3.13885  -0.00128   0.00000  -0.00180  -0.00172   3.13714
   D19       -3.13288  -0.00018   0.00000  -0.00242  -0.00241  -3.13529
   D20       -0.00648  -0.00068   0.00000   0.00082   0.00087  -0.00561
   D21       -0.00940   0.00111   0.00000   0.00491   0.00478  -0.00462
   D22       -3.12274   0.00145   0.00000   0.00258   0.00246  -3.12028
   D23       -3.13574   0.00167   0.00000   0.00191   0.00169  -3.13405
   D24        0.03410   0.00201   0.00000  -0.00041  -0.00063   0.03347
   D25        3.00462   0.00377   0.00000   0.01671   0.01637   3.02100
   D26       -0.15207   0.00272   0.00000   0.02591   0.02601  -0.12606
   D27        3.08998   0.00451   0.00000   0.00781   0.00718   3.09716
   D28       -0.07957   0.00420   0.00000   0.01029   0.00963  -0.06994
   D29        2.37364   0.00094   0.00000   0.00513   0.00429   2.37792
   D30       -0.53721  -0.00136   0.00000   0.00158   0.00126  -0.53595
   D31       -2.55774   0.00638   0.00000   0.03637   0.03562  -2.52212
   D32       -0.01725  -0.00168   0.00000  -0.00652  -0.00700  -0.02425
   D33        0.23989  -0.00410   0.00000  -0.02772  -0.02767   0.21222
   D34       -1.78649  -0.00026   0.00000  -0.00835  -0.00911  -1.79559
         Item               Value     Threshold  Converged?
 Maximum Force            0.059396     0.000450     NO 
 RMS     Force            0.013518     0.000300     NO 
 Maximum Displacement     0.202821     0.001800     NO 
 RMS     Displacement     0.048169     0.001200     NO 
 Predicted change in Energy=-2.271284D-02
 GradGradGradGradGradGradGradGradGradGradGradGradGradGradGradGradGradGrad

                          Input orientation:                          
 ---------------------------------------------------------------------
 Center     Atomic      Atomic             Coordinates (Angstroms)
 Number     Number       Type             X           Y           Z
 ---------------------------------------------------------------------
      1          6           0       -1.688001    0.054292   -0.837910
      2          6           0       -0.291587    0.045282   -0.841774
      3          6           0        0.432276    0.890515    0.008199
      4          6           0       -0.246194    1.752525    0.866879
      5          6           0       -1.644294    1.765600    0.864590
      6          6           0       -2.373287    0.916333    0.015906
      7          1           0       -2.240481   -0.589810   -1.496203
      8          1           0        0.231341   -0.619202   -1.504834
      9          1           0        1.506426    0.875163    0.002653
     10          1           0        0.300631    2.402590    1.524601
     11          8           0       -3.760186    0.908391   -0.041914
     12          1           0       -4.141582    1.517525    0.623105
     13          6           0       -2.341225    2.683934    1.787863
     14          7           0       -2.945622    3.384631    2.471005
     15          8           0       -5.123436    2.686541    1.298415
     16          1           0       -5.388658    3.326779    0.633933
     17          1           0       -4.460860    3.101974    1.893796
 ---------------------------------------------------------------------
                    Distance matrix (angstroms):
                    1          2          3          4          5
     1  C    0.000000
     2  C    1.396448   0.000000
     3  C    2.431202   1.400304   0.000000
     4  C    2.805193   2.415829   1.393095   0.000000
     5  C    2.414330   2.775065   2.410669   1.398163   0.000000
     6  C    1.393461   2.414087   2.805692   2.438830   1.404617
     7  H    1.073989   2.151699   3.405616   3.879159   3.387734
     8  H    2.140620   1.074543   2.146833   3.387942   3.849605
     9  H    3.403636   2.152814   1.074273   2.142038   3.385683
    10  H    3.879513   3.392249   2.145501   1.074338   2.150374
    11  O    2.378455   3.662774   4.192800   3.726473   2.456329
    12  H    3.208688   4.374452   4.657406   3.910076   2.521171
    13  C    3.773116   4.251880   3.751781   2.470807   1.476984
    14  N    4.860215   5.400894   4.867877   3.538912   2.625888
    15  O    4.826472   5.907911   5.979658   4.984586   3.625019
    16  H    5.154644   6.239075   6.341151   5.383073   4.063341
    17  H    4.943616   5.848892   5.691117   4.543014   3.283018
                    6          7          8          9         10
     6  C    0.000000
     7  H    2.138359   0.000000
     8  H    3.384464   2.472011   0.000000
     9  H    3.879953   4.293254   2.476183   0.000000
    10  H    3.411005   4.953481   4.279428   2.470486   0.000000
    11  O    1.388127   2.582454   4.517296   5.266905   4.601830
    12  H    1.963923   3.542106   5.311890   5.718180   4.618365
    13  C    2.503053   4.638172   5.326411   4.611186   2.669806
    14  N    3.528112   5.659696   6.475420   5.675467   3.521114
    15  O    3.513088   5.182258   6.889105   6.993937   5.436202
    16  H    3.909562   5.457854   7.192321   7.345142   5.832274
    17  H    3.558295   5.481921   6.885825   6.644066   4.826722
                   11         12         13         14         15
    11  O    0.000000
    12  H    0.979161   0.000000
    13  C    2.917891   2.440995   0.000000
    14  N    3.620779   2.886372   1.150198   0.000000
    15  O    2.610890   1.669335   2.824937   2.570053   0.000000
    16  H    2.992873   2.197434   3.321393   3.057222   0.960096
    17  H    3.008276   2.055985   2.163061   1.645908   0.982889
                   16         17
    16  H    0.000000
    17  H    1.580696   0.000000
 Stoichiometry    C7H7NO2
 Framework group  C1[X(C7H7NO2)]
 Deg. of freedom    45
 Full point group                 C1      NOp   1
 Largest Abelian subgroup         C1      NOp   1
 Largest concise Abelian subgroup C1      NOp   1
                         Standard orientation:                         
 ---------------------------------------------------------------------
 Center     Atomic      Atomic             Coordinates (Angstroms)
 Number     Number       Type             X           Y           Z
 ---------------------------------------------------------------------
      1          6           0       -1.585515   -1.365864   -0.030403
      2          6           0       -2.712610   -0.545344    0.050029
      3          6           0       -2.582534    0.848441    0.086019
      4          6           0       -1.315208    1.425303    0.043252
      5          6           0       -0.187269    0.602359   -0.030064
      6          6           0       -0.314570   -0.795904   -0.070113
      7          1           0       -1.688006   -2.434765   -0.050388
      8          1           0       -3.689914   -0.990742    0.083801
      9          1           0       -3.454343    1.473480    0.143790
     10          1           0       -1.205678    2.493768    0.067495
     11          8           0        0.773474   -1.656570   -0.118205
     12          1           0        1.612648   -1.156327   -0.183776
     13          6           0        1.145345    1.237276   -0.080080
     14          7           0        2.212287    1.666041   -0.107509
     15          8           0        3.193047   -0.700349    0.101010
     16          1           0        3.442483   -0.901701    1.006008
     17          1           0        3.078797    0.271752    0.011352
 ---------------------------------------------------------------------
 Rotational constants (GHZ):      2.5343291      0.9464912      0.6927476
 Standard basis: Aug-CC-pVTZ (5D, 7F)
 There are   725 symmetry adapted cartesian basis functions of A   symmetry.
 There are   621 symmetry adapted basis functions of A   symmetry.
   621 basis functions,   909 primitive gaussians,   725 cartesian basis functions
    36 alpha electrons       36 beta electrons
       nuclear repulsion energy       480.2143040219 Hartrees.
 NAtoms=   17 NActive=   17 NUniq=   17 SFac= 1.00D+00 NAtFMM=   60 NAOKFM=F Big=F
 Integral buffers will be    131072 words long.
 Raffenetti 2 integral format.
 Two-electron integral symmetry is turned on.
 Nuclear repulsion after empirical dispersion term =      480.2022164790 Hartrees.
 One-electron integrals computed using PRISM.
 NBasis=   621 RedAO= T EigKep=  1.24D-06  NBF=   621
 NBsUse=   619 1.00D-06 EigRej=  8.23D-07 NBFU=   619
 Initial guess from the checkpoint file:  "611-20-1.chk"
 B after Tr=     0.000000    0.000000    0.000000
         Rot=    0.999935   -0.001771   -0.000886   -0.011271 Ang=  -1.31 deg.
 ExpMin= 2.53D-02 ExpMax= 1.53D+04 ExpMxC= 5.22D+02 IAcc=3 IRadAn=         5 AccDes= 0.00D+00
 Harris functional with IExCor=  402 and IRadAn=       5 diagonalized for initial guess.
 HarFok:  IExCor=  402 AccDes= 0.00D+00 IRadAn=         5 IDoV= 1 UseB2=F ITyADJ=14
 ICtDFT=  3500011 ScaDFX=  1.000000  1.000000  1.000000  1.000000
 FoFCou: FMM=F IPFlag=           0 FMFlag=      100000 FMFlg1=           0
         NFxFlg=           0 DoJE=T BraDBF=F KetDBF=T FulRan=T
         wScrn=  0.000000 ICntrl=     500 IOpCl=  0 I1Cent=   200000004 NGrid=           0
         NMat0=    1 NMatS0=      1 NMatT0=    0 NMatD0=    1 NMtDS0=    0 NMtDT0=    0
 Petite list used in FoFCou.
 Requested convergence on RMS density matrix=1.00D-08 within 128 cycles.
 Requested convergence on MAX density matrix=1.00D-06.
 Requested convergence on             energy=1.00D-06.
 No special actions if energy rises.
 SCF Done:  E(RB3LYP) =  -476.345774826     A.U. after   11 cycles
            NFock= 11  Conv=0.59D-08     -V/T= 2.0061
 Calling FoFJK, ICntrl=      2127 FMM=F ISym2X=0 I1Cent= 0 IOpClX= 0 NMat=1 NMatS=1 NMatT=0.
 ***** Axes restored to original set *****
 -------------------------------------------------------------------
 Center     Atomic                   Forces (Hartrees/Bohr)
 Number     Number              X              Y              Z
 -------------------------------------------------------------------
      1        6           0.015035677    0.003399475    0.002332311
      2        6          -0.009516772    0.007012675    0.007390124
      3        6          -0.008574572    0.002128209    0.002281293
      4        6           0.003540902   -0.010832216   -0.010991012
      5        6          -0.010196752    0.021248075    0.024010490
      6        6          -0.037637704   -0.000789262   -0.004680606
      7        1          -0.004053817   -0.001739883   -0.001330319
      8        1           0.001984590   -0.002977225   -0.002913374
      9        1           0.004098136    0.000064744    0.000002667
     10        1           0.000865720    0.002907668    0.002935034
     11        8           0.043873204   -0.009045983   -0.001116095
     12        1          -0.011326188    0.004931019   -0.002069046
     13        6           0.023862455   -0.024600520   -0.023986762
     14        7           0.012017659    0.006051077    0.009812438
     15        8          -0.009683176   -0.003783988    0.003280161
     16        1           0.000672125    0.002614614    0.001580446
     17        1          -0.014961487    0.003411520   -0.006537751
 -------------------------------------------------------------------
 Cartesian Forces:  Max     0.043873204 RMS     0.012538993

 GradGradGradGradGradGradGradGradGradGradGradGradGradGradGradGradGradGrad
 Berny optimization.
 Using GEDIIS/GDIIS optimizer.
 FormGI is forming the generalized inverse of G from B-inverse, IUseBI=4.
 Internal  Forces:  Max     0.031979782 RMS     0.006585211
 Search for a local minimum.
 Step number   2 out of a maximum of   89
 All quantities printed in internal units (Hartrees-Bohrs-Radians)
 Mixed Optimization -- RFO/linear search
 Update second derivatives using D2CorX and points    1    2
 DE= -2.36D-02 DEPred=-2.27D-02 R= 1.04D+00
 TightC=F SS=  1.41D+00  RLast= 3.06D-01 DXNew= 5.0454D-01 9.1697D-01
 Trust test= 1.04D+00 RLast= 3.06D-01 DXMaxT set to 5.05D-01
 ITU=  1  0
 Use linear search instead of GDIIS.
     Eigenvalues ---    0.00489   0.00768   0.01321   0.01656   0.01800
     Eigenvalues ---    0.01903   0.01906   0.01907   0.01930   0.01958
     Eigenvalues ---    0.01963   0.01970   0.03659   0.07609   0.08112
     Eigenvalues ---    0.09956   0.10959   0.11630   0.15925   0.16000
     Eigenvalues ---    0.16000   0.16013   0.17882   0.19579   0.21953
     Eigenvalues ---    0.22041   0.22438   0.24428   0.24599   0.25800
     Eigenvalues ---    0.37341   0.37879   0.37892   0.37917   0.38568
     Eigenvalues ---    0.39726   0.40199   0.43364   0.44099   0.44637
     Eigenvalues ---    0.46197   0.53880   0.55472   0.58398   1.35009
 RFO step:  Lambda=-5.56906248D-03 EMin= 4.89362296D-03
 Quartic linear search produced a step of  0.92566.
 Iteration  1 RMS(Cart)=  0.06179789 RMS(Int)=  0.00518239
 Iteration  2 RMS(Cart)=  0.00595746 RMS(Int)=  0.00106288
 Iteration  3 RMS(Cart)=  0.00001872 RMS(Int)=  0.00106266
 Iteration  4 RMS(Cart)=  0.00000002 RMS(Int)=  0.00106266
 Variable       Old X    -DE/DX   Delta X   Delta X   Delta X     New X
                                 (Linear)    (Quad)   (Total)
    R1        2.63890  -0.00856  -0.02986   0.00204  -0.02767   2.61124
    R2        2.63326  -0.00118  -0.02265   0.02649   0.00387   2.63713
    R3        2.02955   0.00394   0.01586  -0.00223   0.01363   2.04318
    R4        2.64619  -0.00497  -0.02475   0.00998  -0.01465   2.63154
    R5        2.03059   0.00460   0.01746  -0.00116   0.01630   2.04689
    R6        2.63257  -0.00898  -0.03540   0.00847  -0.02697   2.60560
    R7        2.03008   0.00410   0.01665  -0.00256   0.01409   2.04417
    R8        2.64214   0.00098  -0.01397   0.02445   0.01033   2.65247
    R9        2.03020   0.00400   0.01645  -0.00276   0.01369   2.04389
   R10        2.65434   0.00372   0.00956   0.00410   0.01297   2.66731
   R11        2.79110  -0.03198  -0.11884  -0.04385  -0.16362   2.62748
   R12        2.62318  -0.02942  -0.06797  -0.04189  -0.10957   2.51361
   R13        1.85035   0.01234   0.03162   0.00032   0.03291   1.88326
   R14        3.15459   0.00609   0.04452   0.04384   0.08912   3.24371
   R15        2.17356   0.00986   0.01101  -0.00069   0.00941   2.18297
   R16        3.11031   0.02144   0.18106   0.06557   0.24665   3.35696
   R17        1.81432   0.00046   0.00017   0.00137   0.00153   1.81585
   R18        1.85739   0.00552   0.04004  -0.03397   0.00651   1.86391
    A1        2.09147   0.00278   0.00573   0.01333   0.01902   2.11049
    A2        2.10463   0.00100   0.00925   0.00206   0.01129   2.11592
    A3        2.08702  -0.00378  -0.01495  -0.01527  -0.03025   2.05677
    A4        2.10755   0.00238   0.01233  -0.00539   0.00700   2.11455
    A5        2.08557  -0.00148  -0.00837   0.00278  -0.00563   2.07994
    A6        2.09007  -0.00089  -0.00395   0.00262  -0.00137   2.08870
    A7        2.08964  -0.00092  -0.00446  -0.00705  -0.01162   2.07802
    A8        2.10031   0.00057   0.00580  -0.00080   0.00505   2.10536
    A9        2.09323   0.00035  -0.00134   0.00785   0.00657   2.09981
   A10        2.08493   0.00195  -0.00025   0.01790   0.01726   2.10219
   A11        2.09888   0.00041   0.00360   0.00158   0.00538   2.10426
   A12        2.09938  -0.00236  -0.00335  -0.01948  -0.02264   2.07674
   A13        2.11100  -0.00124   0.00666  -0.01455  -0.00744   2.10356
   A14        2.06761   0.00219  -0.01691   0.03732   0.02155   2.08917
   A15        2.10451  -0.00095   0.01028  -0.02256  -0.01412   2.09039
   A16        2.08177  -0.00494  -0.01998  -0.00421  -0.02421   2.05756
   A17        2.05137  -0.00248  -0.03136   0.02493  -0.00601   2.04537
   A18        2.14977   0.00743   0.05140  -0.02035   0.03048   2.18025
   A19        1.93619   0.00821   0.02465   0.05574   0.08173   2.01792
   A20        2.79196   0.01106   0.03863   0.04283   0.08197   2.87393
   A21        1.74249   0.00665   0.05555  -0.00101   0.05227   1.79475
   A22        1.92782   0.00208   0.00810   0.00607   0.01137   1.93919
   A23        1.71585  -0.00702  -0.04835  -0.01146  -0.05831   1.65754
   A24        1.90033  -0.00260  -0.01000  -0.03718  -0.04652   1.85381
   A25        2.70361  -0.00268   0.00066  -0.01583  -0.01417   2.68944
   A26        3.07968  -0.00292  -0.05730   0.05403  -0.00594   3.07374
   A27        3.15505  -0.00179   0.01246  -0.02051  -0.00688   3.14817
    D1        0.00455  -0.00012  -0.00204  -0.00341  -0.00564  -0.00109
    D2       -3.13788   0.00001  -0.00120  -0.00361  -0.00500   3.14031
    D3        3.13351  -0.00008   0.00104   0.00745   0.00863  -3.14104
    D4       -0.00892   0.00005   0.00188   0.00725   0.00928   0.00036
    D5       -0.00139  -0.00032  -0.00102   0.00069   0.00006  -0.00133
    D6        3.11572  -0.00020   0.00233   0.01710   0.01925   3.13498
    D7       -3.13048  -0.00039  -0.00430  -0.01018  -0.01403   3.13867
    D8       -0.01337  -0.00027  -0.00094   0.00623   0.00516  -0.00821
    D9       -0.00170   0.00026   0.00179   0.00195   0.00364   0.00194
   D10        3.13712   0.00014   0.00148   0.00422   0.00578  -3.14028
   D11        3.14073   0.00013   0.00096   0.00214   0.00300  -3.13946
   D12       -0.00363   0.00001   0.00065   0.00442   0.00513   0.00150
   D13       -0.00425   0.00005   0.00154   0.00221   0.00392  -0.00033
   D14        3.13849  -0.00027  -0.00084   0.00410   0.00358  -3.14111
   D15        3.14010   0.00017   0.00184  -0.00004   0.00180  -3.14129
   D16       -0.00034  -0.00015  -0.00054   0.00185   0.00145   0.00111
   D17        0.00745  -0.00050  -0.00463  -0.00500  -0.00957  -0.00212
   D18        3.13714  -0.00055  -0.00159   0.01504   0.01417  -3.13188
   D19       -3.13529  -0.00018  -0.00223  -0.00688  -0.00922   3.13868
   D20       -0.00561  -0.00023   0.00081   0.01316   0.01453   0.00892
   D21       -0.00462   0.00065   0.00443   0.00358   0.00754   0.00292
   D22       -3.12028   0.00068   0.00228  -0.01448  -0.01266  -3.13294
   D23       -3.13405   0.00068   0.00156  -0.01728  -0.01647   3.13267
   D24        0.03347   0.00071  -0.00059  -0.03535  -0.03667  -0.00319
   D25        3.02100   0.00247   0.01516   0.03928   0.05358   3.07457
   D26       -0.12606   0.00165   0.02408   0.04908   0.07355  -0.05251
   D27        3.09716   0.00233   0.00665  -0.01057  -0.00666   3.09050
   D28       -0.06994   0.00226   0.00891   0.00681   0.01315  -0.05679
   D29        2.37792   0.00013   0.00397   0.02458   0.02490   2.40283
   D30       -0.53595  -0.00186   0.00117  -0.01946  -0.01948  -0.55543
   D31       -2.52212   0.00368   0.03297   0.02545   0.05532  -2.46680
   D32       -0.02425  -0.00129  -0.00648  -0.00579  -0.01300  -0.03724
   D33        0.21222  -0.00252  -0.02562  -0.03371  -0.05829   0.15393
   D34       -1.79559  -0.00085  -0.00843  -0.02337  -0.03469  -1.83028
         Item               Value     Threshold  Converged?
 Maximum Force            0.031980     0.000450     NO 
 RMS     Force            0.006585     0.000300     NO 
 Maximum Displacement     0.275160     0.001800     NO 
 RMS     Displacement     0.065415     0.001200     NO 
 Predicted change in Energy=-9.935611D-03
 GradGradGradGradGradGradGradGradGradGradGradGradGradGradGradGradGradGrad

                          Input orientation:                          
 ---------------------------------------------------------------------
 Center     Atomic      Atomic             Coordinates (Angstroms)
 Number     Number       Type             X           Y           Z
 ---------------------------------------------------------------------
      1          6           0       -1.672729    0.088955   -0.828554
      2          6           0       -0.291591    0.046210   -0.823591
      3          6           0        0.451565    0.866944    0.020989
      4          6           0       -0.209892    1.733024    0.865699
      5          6           0       -1.612477    1.786548    0.873512
      6          6           0       -2.366358    0.957089    0.015641
      7          1           0       -2.250995   -0.548055   -1.483401
      8          1           0        0.217810   -0.639298   -1.489803
      9          1           0        1.532562    0.827314    0.016988
     10          1           0        0.343132    2.381673    1.531459
     11          8           0       -3.694500    0.942523   -0.055878
     12          1           0       -4.167270    1.537960    0.588412
     13          6           0       -2.263288    2.673961    1.723312
     14          7           0       -2.871845    3.389050    2.396172
     15          8           0       -5.239386    2.654282    1.330536
     16          1           0       -5.534266    3.320015    0.703489
     17          1           0       -4.545212    3.084868    1.883326
 ---------------------------------------------------------------------
                    Distance matrix (angstroms):
                    1          2          3          4          5
     1  C    0.000000
     2  C    1.381808   0.000000
     3  C    2.416530   1.392552   0.000000
     4  C    2.777292   2.388664   1.378824   0.000000
     5  C    2.404680   2.766527   2.415106   1.403627   0.000000
     6  C    1.395509   2.416334   2.819370   2.444385   1.411482
     7  H    1.081202   2.151223   3.401359   3.858458   3.378331
     8  H    2.131136   1.083166   2.146136   3.370346   3.849667
     9  H    3.396176   2.155048   1.081730   2.139338   3.397798
    10  H    3.858746   3.376910   2.141887   1.081581   2.147434
    11  O    2.326621   3.601742   4.147466   3.690080   2.431248
    12  H    3.214055   4.386338   4.701688   3.971873   2.582643
    13  C    3.680087   4.156847   3.678810   2.416050   1.390402
    14  N    4.767323   5.310288   4.800789   3.488662   2.544114
    15  O    4.895265   5.993578   6.107079   5.134258   3.757167
    16  H    5.262925   6.366743   6.504886   5.558220   4.214364
    17  H    4.957918   5.886776   5.775402   4.653821   3.362484
                    6          7          8          9         10
     6  C    0.000000
     7  H    2.127416   0.000000
     8  H    3.390094   2.470498   0.000000
     9  H    3.901080   4.296290   2.479908   0.000000
    10  H    3.415916   4.939857   4.274342   2.474752   0.000000
    11  O    1.330146   2.518601   4.456957   5.228839   4.570915
    12  H    1.977059   3.509414   5.318680   5.772316   4.684540
    13  C    2.423719   4.545828   5.240004   4.553035   2.629765
    14  N    3.440476   5.562135   6.393306   5.623328   3.478306
    15  O    3.586600   5.206120   6.970148   7.136001   5.592781
    16  H    4.011508   5.524883   7.319363   7.524952   6.009146
    17  H    3.572547   5.458610   6.923424   6.746785   4.951182
                   11         12         13         14         15
    11  O    0.000000
    12  H    0.996578   0.000000
    13  C    2.865617   2.490711   0.000000
    14  N    3.560170   2.893554   1.155177   0.000000
    15  O    2.690527   1.716495   3.001969   2.698280   0.000000
    16  H    3.100621   2.248920   3.486649   3.155697   0.960908
    17  H    3.012287   2.052454   2.324140   1.776427   0.986336
                   16         17
    16  H    0.000000
    17  H    1.557414   0.000000
 Stoichiometry    C7H7NO2
 Framework group  C1[X(C7H7NO2)]
 Deg. of freedom    45
 Full point group                 C1      NOp   1
 Largest Abelian subgroup         C1      NOp   1
 Largest concise Abelian subgroup C1      NOp   1
                         Standard orientation:                         
 ---------------------------------------------------------------------
 Center     Atomic      Atomic             Coordinates (Angstroms)
 Number     Number       Type             X           Y           Z
 ---------------------------------------------------------------------
      1          6           0       -1.528499   -1.382644   -0.012520
      2          6           0       -2.676983   -0.616003    0.038852
      3          6           0       -2.614329    0.774978    0.060007
      4          6           0       -1.380947    1.390451    0.026555
      5          6           0       -0.205460    0.625296   -0.027653
      6          6           0       -0.268043   -0.784676   -0.046143
      7          1           0       -1.575681   -2.462682   -0.029507
      8          1           0       -3.640754   -1.109789    0.062768
      9          1           0       -3.518842    1.366819    0.101487
     10          1           0       -1.303955    2.469172    0.042399
     11          8           0        0.787372   -1.593196   -0.087162
     12          1           0        1.673310   -1.142100   -0.156407
     13          6           0        1.030490    1.261836   -0.049108
     14          7           0        2.090993    1.719628   -0.063099
     15          8           0        3.316223   -0.682505    0.033235
     16          1           0        3.622916   -0.855386    0.927325
     17          1           0        3.139913    0.286751   -0.014890
 ---------------------------------------------------------------------
 Rotational constants (GHZ):      2.5625443      0.9404307      0.6902509
 Standard basis: Aug-CC-pVTZ (5D, 7F)
 There are   725 symmetry adapted cartesian basis functions of A   symmetry.
 There are   621 symmetry adapted basis functions of A   symmetry.
   621 basis functions,   909 primitive gaussians,   725 cartesian basis functions
    36 alpha electrons       36 beta electrons
       nuclear repulsion energy       481.5356525745 Hartrees.
 NAtoms=   17 NActive=   17 NUniq=   17 SFac= 1.00D+00 NAtFMM=   60 NAOKFM=F Big=F
 Integral buffers will be    131072 words long.
 Raffenetti 2 integral format.
 Two-electron integral symmetry is turned on.
 Nuclear repulsion after empirical dispersion term =      481.5234890791 Hartrees.
 One-electron integrals computed using PRISM.
 NBasis=   621 RedAO= T EigKep=  1.20D-06  NBF=   621
 NBsUse=   619 1.00D-06 EigRej=  8.11D-07 NBFU=   619
 Initial guess from the checkpoint file:  "611-20-1.chk"
 B after Tr=     0.000000    0.000000    0.000000
         Rot=    0.999900   -0.001187   -0.000957   -0.014027 Ang=  -1.62 deg.
 ExpMin= 2.53D-02 ExpMax= 1.53D+04 ExpMxC= 5.22D+02 IAcc=3 IRadAn=         5 AccDes= 0.00D+00
 Harris functional with IExCor=  402 and IRadAn=       5 diagonalized for initial guess.
 HarFok:  IExCor=  402 AccDes= 0.00D+00 IRadAn=         5 IDoV= 1 UseB2=F ITyADJ=14
 ICtDFT=  3500011 ScaDFX=  1.000000  1.000000  1.000000  1.000000
 FoFCou: FMM=F IPFlag=           0 FMFlag=      100000 FMFlg1=           0
         NFxFlg=           0 DoJE=T BraDBF=F KetDBF=T FulRan=T
         wScrn=  0.000000 ICntrl=     500 IOpCl=  0 I1Cent=   200000004 NGrid=           0
         NMat0=    1 NMatS0=      1 NMatT0=    0 NMatD0=    1 NMtDS0=    0 NMtDT0=    0
 Petite list used in FoFCou.
 Requested convergence on RMS density matrix=1.00D-08 within 128 cycles.
 Requested convergence on MAX density matrix=1.00D-06.
 Requested convergence on             energy=1.00D-06.
 No special actions if energy rises.
 SCF Done:  E(RB3LYP) =  -476.355402846     A.U. after   11 cycles
            NFock= 11  Conv=0.92D-08     -V/T= 2.0057
 Calling FoFJK, ICntrl=      2127 FMM=F ISym2X=0 I1Cent= 0 IOpClX= 0 NMat=1 NMatS=1 NMatT=0.
 ***** Axes restored to original set *****
 -------------------------------------------------------------------
 Center     Atomic                   Forces (Hartrees/Bohr)
 Number     Number              X              Y              Z
 -------------------------------------------------------------------
      1        6           0.001664286   -0.002780546   -0.002877415
      2        6          -0.001194426   -0.002931655   -0.003160236
      3        6           0.003233861    0.002028648    0.002282379
      4        6           0.003084307   -0.000864762   -0.000608741
      5        6           0.009695831   -0.009368502   -0.009306831
      6        6           0.002714222   -0.001653352   -0.001147699
      7        1           0.000158143    0.000304174    0.000300472
      8        1          -0.000591266    0.000521430    0.000482416
      9        1          -0.001078658    0.000082728    0.000089498
     10        1          -0.000730508   -0.000129636   -0.000092527
     11        8          -0.005598797    0.001931991    0.005958376
     12        1          -0.000593656   -0.001847321   -0.008075020
     13        6          -0.008320909    0.013323315    0.013631702
     14        7           0.006804726    0.001182535    0.002251417
     15        8           0.003667453    0.000090884    0.005188200
     16        1          -0.000705788    0.001084899   -0.000062239
     17        1          -0.012208821   -0.000974829   -0.004853752
 -------------------------------------------------------------------
 Cartesian Forces:  Max     0.013631702 RMS     0.004835186

 GradGradGradGradGradGradGradGradGradGradGradGradGradGradGradGradGradGrad
 Berny optimization.
 Using GEDIIS/GDIIS optimizer.
 FormGI is forming the generalized inverse of G from B-inverse, IUseBI=4.
 Internal  Forces:  Max     0.021103017 RMS     0.003054676
 Search for a local minimum.
 Step number   3 out of a maximum of   89
 All quantities printed in internal units (Hartrees-Bohrs-Radians)
 Mixed Optimization -- RFO/linear search
 Update second derivatives using D2CorX and points    2    3
 DE= -9.63D-03 DEPred=-9.94D-03 R= 9.69D-01
 TightC=F SS=  1.41D+00  RLast= 3.99D-01 DXNew= 8.4853D-01 1.1969D+00
 Trust test= 9.69D-01 RLast= 3.99D-01 DXMaxT set to 8.49D-01
 ITU=  1  1  0
 Use linear search instead of GDIIS.
     Eigenvalues ---    0.00471   0.00749   0.01296   0.01650   0.01788
     Eigenvalues ---    0.01903   0.01906   0.01907   0.01929   0.01957
     Eigenvalues ---    0.01962   0.01970   0.03638   0.07087   0.08371
     Eigenvalues ---    0.08699   0.10537   0.11127   0.15948   0.16000
     Eigenvalues ---    0.16002   0.16013   0.18496   0.19368   0.21992
     Eigenvalues ---    0.22108   0.22932   0.24459   0.24624   0.32767
     Eigenvalues ---    0.37845   0.37879   0.37916   0.37954   0.39037
     Eigenvalues ---    0.40125   0.40566   0.43490   0.44094   0.44855
     Eigenvalues ---    0.46982   0.54004   0.55478   0.59233   1.35235
 RFO step:  Lambda=-2.88138510D-03 EMin= 4.71455811D-03
 Quartic linear search produced a step of -0.04895.
 Iteration  1 RMS(Cart)=  0.03342473 RMS(Int)=  0.00055377
 Iteration  2 RMS(Cart)=  0.00049375 RMS(Int)=  0.00009130
 Iteration  3 RMS(Cart)=  0.00000052 RMS(Int)=  0.00009130
 Variable       Old X    -DE/DX   Delta X   Delta X   Delta X     New X
                                 (Linear)    (Quad)   (Total)
    R1        2.61124   0.00025   0.00135  -0.00406  -0.00270   2.60854
    R2        2.63713   0.00399  -0.00019   0.00912   0.00893   2.64606
    R3        2.04318  -0.00045  -0.00067   0.00103   0.00036   2.04354
    R4        2.63154   0.00427   0.00072   0.00626   0.00698   2.63852
    R5        2.04689  -0.00091  -0.00080   0.00030  -0.00050   2.04639
    R6        2.60560   0.00057   0.00132  -0.00332  -0.00200   2.60360
    R7        2.04417  -0.00108  -0.00069  -0.00047  -0.00116   2.04302
    R8        2.65247   0.00253  -0.00051   0.00704   0.00653   2.65900
    R9        2.04389  -0.00051  -0.00067   0.00089   0.00022   2.04411
   R10        2.66731   0.00421  -0.00064   0.01254   0.01193   2.67924
   R11        2.62748   0.02110   0.00801   0.04735   0.05533   2.68280
   R12        2.51361   0.00689   0.00536  -0.00098   0.00443   2.51804
[...]
         Item               Value     Threshold  Converged?
 Maximum Force            0.000012     0.000450     YES
 RMS     Force            0.000002     0.000300     YES
 Maximum Displacement     0.002620     0.001800     NO 
 RMS     Displacement     0.000524     0.001200     YES
 Predicted change in Energy=-2.344375D-08
 GradGradGradGradGradGradGradGradGradGradGradGradGradGradGradGradGradGrad

 1\1\GINC-NODE103\Freq\RB3LYP\Aug-CC-pVTZ\C7H7N1O2\KAESER\01-Oct-2021\0
 \\#N Geom=AllCheck Guess=TCheck SCRF=Check GenChk RB3LYP/Aug-CC-pVTZ F
 req\\Title Card Required\\0,1\C,-1.637702341,0.1036978591,-0.863743046
 7\C,-0.2615214595,-0.0070561018,-0.8128052824\C,0.4923386394,0.7866164
 166,0.0552614797\C,-0.1547450109,1.6936436597,0.8681760122\C,-1.553526
 2677,1.8211098374,0.8279311038\C,-2.3155305974,1.0154197803,-0.0464985
 634\H,-2.2270844974,-0.5088971891,-1.5306785762\H,0.2348793786,-0.7215
 962073,-1.4555123842\H,1.5678695648,0.6939052714,0.091304564\H,0.40317
 40645,2.3219895645,1.5479546577\O,-3.6485122433,1.056100274,-0.1639498
 338\H,-4.1238404798,1.6602287404,0.4497752175\C,-2.1911062007,2.773113
 9849,1.668442008\N,-2.7373384655,3.5405372045,2.3352702566\O,-5.303438
 6852,2.5760898772,1.4077767998\H,-5.9563205624,3.1163810055,0.95337025
 97\H,-4.7623346867,3.1817794226,1.9362336977\\Version=ES64L-G09RevD.01
 \State=1-A\HF=-476.3594018\RMSD=4.491e-09\RMSF=4.260e-06\ZeroPoint=0.1
 280809\Thermal=0.1381268\Dipole=0.3816836,-0.121415,-0.6263864\DipoleD
 eriv=-0.3816328,-0.0095416,-0.0348175,0.2957958,-0.0747321,0.1192285,0
 .2715473,0.0851714,-0.0476602,0.2356503,0.120288,0.1555199,0.008911,0.
 0647329,0.1554986,0.0474042,0.1678909,0.0769922,-0.0229496,0.0120129,0
 .0286431,-0.0286944,-0.3159143,-0.154076,-0.0112536,-0.1492257,-0.3076
 522,0.2143794,-0.2868067,-0.2450796,-0.0081159,0.0723636,0.149367,0.02
 61489,0.1169114,0.0383273,-0.2722882,0.275135,0.2378167,-0.0468064,-0.
 1773654,-0.1682541,-0.0789042,-0.1344662,-0.1492573,1.5639995,0.012871
 ,0.1729069,-0.1965866,0.1662855,0.0061064,-0.0292916,0.0326692,0.15895
 3,0.0339431,-0.0314013,-0.0436938,-0.0254972,0.0715804,-0.0731186,-0.0
 363587,-0.0733886,0.0672548,0.0417765,0.0516271,0.041009,0.0524911,0.0
 319231,-0.0857205,0.0406459,-0.0862568,0.0455625,-0.0753694,0.021061,-
 0.0051435,0.0167895,0.096537,-0.042975,-0.0094706,-0.0429542,0.0993727
 ,0.0481037,-0.0237789,-0.0327276,-0.0349723,0.0618107,-0.0704879,-0.04
 29363,-0.0699128,0.05631,-1.7326271,0.1145979,-0.0421108,0.3255443,-0.
 3629718,-0.0173674,0.1465831,-0.0436588,-0.3348756,0.7142484,-0.214490
 8,-0.1785512,-0.3860286,0.3980317,0.1048699,-0.3525805,0.1293502,0.340
 9521,0.207799,-0.2709618,-0.2533531,-0.2452246,0.5143157,0.3161686,-0.
 2340586,0.3138021,0.4344652,-0.5487399,0.1586323,0.1352115,0.1211282,-
 0.5366635,-0.1903716,0.0963448,-0.1819759,-0.4860625,-0.9334559,0.1347
 974,0.1619449,0.0422273,-0.40309,-0.0692029,0.1354598,-0.0638781,-0.54
 18348,0.3201288,0.0244329,-0.0302858,0.0448423,0.2105241,0.0170121,-0.
 0205327,0.0079002,0.2754377,0.5870341,-0.0884745,-0.0672892,0.0641965,
 0.1826321,0.0033227,0.0512529,-0.0079783,0.273715\Polar=123.7649205,-1
 7.2654895,96.5933386,-9.0166113,33.5232003,91.7296974\PG=C01 [X(C7H7N1
 O2)]\NImag=0\\0.72496699,-0.00351725,0.41389540,0.06510917,0.28026170,
 0.40964468,-0.35292973,-0.00065687,-0.03485631,0.68421370,0.04411117,-
 0.09862472,-0.03281394,-0.05781147,0.43658252,0.00896079,-0.03804372,-
 0.09598891,0.00668671,0.28171460,0.41991790,-0.03191530,-0.01780875,-0
 .02202526,-0.18318138,-0.07619125,-0.08880278,0.74148179,-0.04759461,0
 .02717491,0.01288340,-0.03021658,-0.15717302,-0.09461528,-0.04934803,0
 .40092532,-0.05130794,0.01614774,0.01849681,-0.04382851,-0.09993656,-0
 .16798265,0.02400160,0.26142407,0.38780543,-0.04289253,0.02169282,0.01
 673422,0.06136594,0.00972133,0.01574600,-0.17703901,0.05117720,0.03699
 633,0.64781396,0.02348414,-0.01426660,-0.00798564,-0.02405312,-0.02759
 774,-0.03711356,0.09533155,-0.19311506,-0.11531195,-0.01532080,0.44646
 951,0.01836151,-0.00803125,-0.00931355,-0.01725150,-0.03321707,-0.0270
 3166,0.08017367,-0.12043521,-0.17264511,0.04501963,0.30020563,0.436614
 80,0.05196822,-0.01781539,-0.01232385,-0.04641814,-0.01781390,-0.02234
 152,-0.02721955,0.05463080,0.04914661,-0.29433025,-0.00447191,-0.03199
 180,0.63624956,0.00625226,-0.01874391,-0.02528978,-0.00936524,-0.00609
 625,-0.00305043,0.02328081,0.00763718,0.00146997,0.02728069,-0.0872464
 1,-0.02415919,-0.04521458,0.39743919,0.01121700,-0.02823618,-0.0179244
 7,-0.01395843,-0.00410080,-0.00977158,0.01837118,0.00507218,0.01611116
 ,-0.00104841,-0.02767553,-0.08650375,0.01689319,0.25442889,0.37764016,
 -0.14151658,0.06949691,0.05991209,-0.03126437,0.02283525,0.01870041,0.
 00643348,0.00270566,0.00400355,-0.02395517,-0.02191721,-0.02465427,-0.
 16337212,-0.05220578,-0.06187133,0.69255309,0.02398981,-0.17946098,-0.
 10273777,0.05756717,0.01515016,0.02023295,-0.00046859,-0.03880912,-0.0
 3262740,-0.05190000,0.02768908,0.01653626,-0.01940117,-0.14736395,-0.0
 7955422,-0.04089799,0.42159226,0.01582078,-0.09767597,-0.16682903,0.05
 244069,0.01620807,0.02323600,0.00096149,-0.03210531,-0.03687037,-0.054
 05329,0.01979579,0.01783427,-0.03017737,-0.08341523,-0.15309821,0.0193
 0282,0.24588112,0.41288499,-0.13892256,-0.08568619,-0.09562384,-0.0116
 1057,-0.01871218,-0.01997233,-0.00489089,0.00200028,0.00053513,-0.0007
 5657,0.00052742,0.00055046,-0.00084609,0.00218086,0.00145451,0.0105852
 6,0.00942864,0.00985394,0.14490978,-0.08406352,-0.13916431,-0.11109660
 ,0.00268896,0.00546087,0.00298847,0.00152255,0.00441752,-0.00286649,0.
 00078755,-0.00053655,0.00059940,0.00272146,0.00064086,-0.00395734,-0.0
 1330678,-0.00772843,-0.01424466,0.09113204,0.14000117,-0.09385148,-0.1
 1127952,-0.15516184,0.00089023,0.00051621,0.00332102,0.00004120,-0.002
 77362,0.00482402,0.00088202,0.00054647,-0.00040712,0.00200080,-0.00406
 499,0.00124517,-0.01263454,-0.01157361,-0.00749581,0.10292636,0.123210
 04,0.15710588,-0.01019475,0.02190211,0.01967739,-0.11799665,0.08444012
 ,0.07372903,0.01221920,-0.01167371,-0.01057600,-0.00095677,-0.00212765
 ,-0.00297447,-0.00092547,-0.00033136,-0.00031874,-0.00460500,-0.000202
 12,-0.00174528,0.00073167,-0.00060056,0.00001943,0.12186983,0.00009420
 ,0.00254569,-0.00222372,0.08476773,-0.17093569,-0.11814701,0.00995415,
 -0.00680521,-0.01008308,-0.00247159,0.00180168,-0.00492310,-0.00050885
 ,-0.00009449,0.00074448,-0.00000203,0.00518594,-0.00332294,-0.00007336
 ,-0.00182017,0.00268979,-0.09198571,0.17281351,-0.00158269,0.00034310,
 0.00496949,0.07403399,-0.11815795,-0.14761432,0.01064756,-0.01267401,-
 0.00652260,-0.00335242,-0.00487481,0.00135950,-0.00051585,0.00074874,-
 0.00024352,-0.00148039,-0.00332029,0.00513787,0.00052568,0.00262188,-0
 .00193919,-0.07902325,0.13286640,0.14746406,0.00062879,-0.00190002,-0.
 00251241,-0.01190851,0.00291681,0.00121762,-0.33697855,0.02555475,-0.0
 1073188,-0.01049836,-0.00020023,-0.00170350,0.00133977,0.00195346,0.00
 124755,0.00054182,-0.00023558,-0.00010538,-0.00059529,0.00023515,0.000
 11239,0.00064195,-0.00053070,-0.00001806,0.35663408,-0.00126657,0.0009
 9393,-0.00511178,-0.01910764,0.00486548,0.00049188,0.02528499,-0.04867
 271,-0.01158571,0.02183887,0.00130122,0.00156907,0.00173386,0.00105242
 ,-0.00552866,-0.00009748,-0.00109351,-0.00052070,-0.00084073,0.0003200
 3,-0.00017814,0.00010940,-0.00137207,0.00221007,-0.02789122,0.04435206
 ,-0.00181750,-0.00519793,0.00072511,-0.02042522,0.00307672,0.00266844,
 -0.01100970,-0.01152240,-0.04646745,0.01993722,-0.00104747,0.00363459,
 0.00099424,-0.00549567,0.00164122,0.00004177,-0.00054796,-0.00109424,-
 0.00094437,-0.00005098,0.00024830,0.00061122,0.00213201,-0.00144413,0.
 01183180,0.01589545,0.04182018,-0.00045927,0.00035249,0.00040085,-0.00
 076688,0.00272905,0.00172778,0.01259341,0.00932913,0.01002428,-0.13423
 827,-0.08220945,-0.09168526,-0.01305819,-0.01809546,-0.01960298,-0.004
 41903,0.00258065,0.00128691,0.00004616,-0.00009062,-0.00000063,0.00042
 206,0.00050143,0.00056264,0.00065227,-0.00057850,0.00002723,0.14006101
 ,0.00065473,-0.00042722,0.00063942,0.00315389,0.00140204,-0.00544444,-
 0.01230971,-0.00631547,-0.01249266,-0.08340882,-0.14349494,-0.11298894
 ,0.00328014,0.00502928,0.00182858,0.00144276,0.00331180,-0.00227441,-0
 .00011239,-0.00035335,0.00034218,-0.00063042,-0.00053903,-0.00047035,-
 0.00001877,-0.00178903,0.00262988,0.08760198,0.14394371,0.00064785,0.0
 0063709,-0.00030607,0.00220588,-0.00546833,0.00226108,-0.01110411,-0.0
 1008219,-0.00618094,-0.09301712,-0.11276956,-0.15907067,0.00141132,-0.
 00066211,0.00305837,0.00023232,-0.00217684,0.00370459,-0.00002392,0.00
 034879,-0.00037935,-0.00054631,-0.00033138,-0.00053388,0.00058725,0.00
 256853,-0.00189881,0.09904780,0.12590474,0.16039220,-0.05605053,0.0181
 7672,0.01081923,0.01173451,0.00306548,0.00393746,-0.00647626,-0.005333
 88,-0.00578880,-0.00377903,0.00168079,0.00051627,-0.03364627,-0.010202
 29,-0.01536047,-0.32605378,-0.00250410,-0.03661996,0.00092759,-0.00066
 749,-0.00014692,-0.00100460,0.00033231,0.00016791,-0.00000688,-0.00013
 790,-0.00006773,-0.00130815,0.00030436,0.00008165,0.54021669,0.0436277
 0,0.00193492,-0.00143903,-0.00598119,-0.00298730,-0.00797600,0.0008455
 9,0.00427962,0.00544872,0.00600246,-0.00268441,-0.00782631,-0.02702369
 ,0.01064548,-0.00277277,0.02076036,-0.07698022,-0.03270300,-0.00042663
 ,-0.00053632,0.00266836,0.00125064,-0.00022419,0.00007364,0.00000422,-
 0.00009904,0.00059088,-0.00098100,0.00032189,-0.00012157,-0.13436169,0
 .24717388,0.03566804,-0.00398738,0.00907453,-0.00434255,-0.00718370,-0
 .00292303,-0.00003975,0.00445726,0.00314870,0.00448352,-0.00798286,-0.
 00136078,-0.03135264,-0.00096037,0.00544777,-0.00914350,-0.03599117,-0
 .08270385,0.00004006,0.00268341,-0.00068788,0.00123377,-0.00003623,-0.
 00005541,0.00009505,0.00055367,-0.00010857,-0.00111147,0.00000963,0.00
 023609,-0.08945783,0.22162425,0.26203535,-0.00084501,-0.00244433,-0.00
 272478,-0.00090434,0.00078993,0.00043524,0.00090250,0.00024825,0.00035
 755,-0.00008234,0.00066907,0.00055525,0.00328971,0.00118200,0.00153464
 ,-0.03328048,0.02454206,0.02338469,-0.00003002,0.00017146,0.00024659,-
 0.00013816,-0.00010630,-0.00008840,0.00007035,-0.00002911,-0.00000133,
 0.00044232,-0.00002122,0.00002478,-0.11054060,0.08757768,0.08542036,0.
 14069476,-0.00448384,0.00380225,-0.00031428,0.00220077,0.00148653,-0.0
 0016294,-0.00096837,-0.00114119,-0.00128267,-0.00123763,-0.00005284,0.
 00015779,-0.00290098,-0.00095973,-0.00087568,0.00839605,-0.00072068,0.
 00760525,-0.00005139,-0.00026931,0.00038082,-0.00020086,-0.00009755,0.
 00025247,-0.00001711,-0.00011222,0.00000466,-0.00029692,0.00001747,0.0
 0001284,0.11032343,-0.17459634,-0.16745056,-0.10353396,0.17383207,-0.0
 0550112,-0.00006911,0.00258068,0.00151932,-0.00005710,0.00180836,-0.00
 075365,-0.00105030,-0.00103744,-0.00110521,0.00018172,-0.00029371,-0.0
 0271873,-0.00032922,-0.00097131,0.00408317,0.00983582,0.00506108,0.000
 04121,0.00035157,-0.00026381,-0.00025199,0.00026308,-0.00012491,-0.000
 00474,0.00000490,-0.00011605,-0.00028909,0.00005387,-0.00002153,0.1128
 0533,-0.17126432,-0.18811201,-0.09980680,0.15690130,0.18570627,-0.0006
 4810,-0.00254355,-0.00330490,-0.00011921,-0.00003962,0.00010702,-0.006
 35690,-0.00296326,-0.00449698,-0.02625665,0.03203266,0.02802127,-0.123
 69833,0.05581481,0.04554233,0.02336305,-0.00223965,0.00053863,0.000628
 75,-0.00067300,-0.00063278,0.00011696,-0.00002368,0.00011166,-0.000484
 29,0.00110393,0.00090228,0.00023996,0.00021788,0.00067626,-0.00670474,
 0.00009501,-0.00048033,-0.00049006,-0.00307960,-0.00292497,0.44243694,
 -0.00297261,0.00115293,-0.00560825,-0.00429534,-0.00215827,-0.00144688
 ,-0.00044312,0.01055488,0.00307542,0.02463315,-0.00981337,-0.00587406,
 0.05516161,-0.15776792,-0.09100643,-0.00049006,-0.02436626,-0.02484610
 ,0.00067472,-0.00038604,-0.00051773,-0.00014311,-0.00053739,0.00051650
 ,0.00002032,0.00064595,-0.00042974,-0.00153282,-0.00144577,0.00219301,
 0.01036538,-0.00295822,0.00149789,-0.00294325,0.00311711,0.00253440,-0
 .43948890,0.73143710,-0.00380774,-0.00549254,0.00058702,-0.00400313,-0
 .00091484,-0.00254906,-0.00198007,0.00267941,0.00976419,0.02076605,-0.
 00500734,-0.00306130,0.04466575,-0.09075186,-0.13809043,0.00246063,-0.
 02514547,-0.02290457,0.00070425,-0.00066105,-0.00038880,0.00000543,0.0
 0052477,-0.00055232,-0.00016172,-0.00031535,0.00077040,-0.00098546,0.0
 0241217,-0.00164429,0.00947369,0.00028161,-0.00169972,-0.00281761,0.00
 248853,0.00246209,-0.37835789,0.56043456,0.58067673,0.00147522,0.00017
 362,0.00047711,-0.00122554,-0.00039231,-0.00056434,0.00076995,0.002117
 67,0.00231691,0.00637410,-0.00337187,-0.00275910,0.01047270,0.01850853
 ,0.01693184,-0.01374704,-0.00142235,-0.00325852,-0.00029223,0.00030770
 ,0.00028674,-0.00004701,0.00002861,-0.00000146,-0.00004029,-0.00006743
 ,-0.00003123,-0.00003889,-0.00017095,-0.00021053,0.00740511,-0.0021300
 3,-0.00126103,-0.00238532,0.00323044,0.00300726,-0.29557460,0.36157073
 ,0.31463112,0.29385046,-0.00019614,-0.00039041,0.00086835,0.00172700,0
 .00094975,0.00085812,0.00110234,-0.00333861,-0.00175796,-0.00920942,0.
 00161667,-0.00173173,0.01708707,-0.00448003,-0.01868924,0.00805537,0.0
 0480885,0.00409006,0.00002537,-0.00014824,-0.00003152,0.00008891,0.000
 09030,-0.00011709,0.00009896,-0.00043135,-0.00005346,0.00058843,0.0003
 4469,-0.00006072,-0.00514686,0.00150365,0.00048248,0.00083388,-0.00164
 813,-0.00107294,0.36047631,-0.54558862,-0.43831843,-0.37399645,0.54617
 687,0.00016378,0.00085450,-0.00036479,0.00144973,0.00058119,0.00101910
 ,0.00128586,-0.00156494,-0.00278802,-0.00830610,-0.00102720,0.00025453
 ,0.01559401,-0.01863558,0.00109473,0.00587906,0.00292888,0.00516989,0.
 00000227,0.00000180,-0.00010722,0.00005132,-0.00011978,0.00010038,0.00
 013250,-0.00006600,-0.00041330,0.00049493,-0.00014635,0.00037513,-0.00
 413092,0.00095382,0.00071965,0.00060235,-0.00085228,-0.00127193,0.3136
 6230,-0.43828609,-0.42174845,-0.32526822,0.45476126,0.41799691,-0.0016
 7991,0.00035146,0.00010641,0.00015174,0.00024811,0.00025416,-0.0003887
 0,0.00013154,0.00007393,0.00062711,0.00007721,0.00013931,0.00022059,-0
 .00029596,-0.00023279,0.00494507,0.00086813,0.00154527,0.00003162,-0.0
 0003009,-0.00000713,-0.00014544,0.00005735,0.00004936,-0.00009227,0.00
 003703,0.00002994,0.00002972,-0.00005495,-0.00004007,-0.00932980,0.009
 21516,0.00838185,-0.00223220,-0.00769136,-0.00594759,-0.00093082,-0.00
 356825,-0.00341459,-0.01068909,-0.00048327,-0.00133819,0.42561617,0.00
 207415,-0.00050284,-0.00022430,-0.00081224,-0.00030661,-0.00033017,0.0
 0028789,0.00048508,0.00052480,0.00059291,-0.00000337,0.00002500,0.0003
 1674,0.00058238,0.00088423,-0.00622847,-0.00105728,-0.00197916,-0.0000
 9278,0.00011812,0.00010410,0.00010337,-0.00002078,-0.00001484,0.000010
 12,0.00003137,0.00003276,0.00012853,-0.00001772,0.00001421,0.01437821,
 -0.00535297,-0.00737226,-0.00631009,0.00025011,0.00334482,0.00177144,-
 0.00114378,-0.00130278,-0.00426459,0.00180387,-0.00084362,-0.03940730,
 0.43018548,0.00227050,-0.00049643,-0.00031177,-0.00095132,-0.00025917,
 -0.00043454,0.00034361,0.00057454,0.00058621,0.00065826,-0.00006174,0.
 00011610,0.00057224,0.00092551,0.00067098,-0.00720169,-0.00118957,-0.0
 0202278,-0.00010588,0.00013662,0.00010582,0.00010977,-0.00002693,-0.00
 001098,0.00001040,0.00004097,0.00003574,0.00016102,-0.00000032,-0.0000
 0843,0.01395629,-0.00720850,-0.00071087,-0.00645570,0.00551557,-0.0083
 1916,0.00112492,-0.00175671,-0.00152198,-0.00584994,-0.00076398,0.0012
 8477,0.31843932,0.04290275,0.28772190,0.00015243,-0.00007607,-0.000029
 86,-0.00003669,-0.00000076,-0.00002109,0.00005840,-0.00002574,-0.00001
 802,-0.00012583,-0.00002014,0.00000222,0.00023880,0.00007100,-0.000001
 26,-0.00082071,0.00012593,0.00003316,0.00000268,0.00000505,-0.00000460
 ,0.00001284,-0.00000762,-0.00001057,0.00001373,-0.00000248,-0.00000597
 ,0.00000348,0.00000669,-0.00000087,0.00081633,-0.00048345,0.00042425,-
 0.00166268,0.00154870,-0.00142810,-0.00049522,-0.00033679,-0.00028651,
 -0.00057577,-0.00026871,0.00029392,-0.24260510,0.16541993,-0.17200065,
 0.26122275,0.00006285,0.00003077,0.00007013,0.00001395,-0.00002642,0.0
 0000305,-0.00001631,-0.00000442,-0.00000684,-0.00000296,0.00000048,0.0
 0002745,0.00002721,0.00001866,0.00002079,-0.00004765,-0.00006690,-0.00
 024388,0.00000636,0.00000502,-0.00000816,0.00000702,0.00000350,-0.0000
 0062,-0.00000393,0.00000614,-0.00000154,0.00000440,-0.00000020,-0.0000
 0468,0.00026596,0.00004871,-0.00078529,0.00010773,-0.00080280,0.002473
 43,-0.00037526,-0.00015986,-0.00011105,-0.00105509,-0.00037021,-0.0000
 8084,0.20841319,-0.19769850,0.13561519,-0.18594342,0.18463682,0.000156
 86,0.00000443,0.00002988,0.00004620,-0.00003673,-0.00001557,0.00001030
 ,-0.00002460,-0.00003169,-0.00005746,-0.00000705,0.00000190,-0.0000274
 9,0.00003886,0.00004141,-0.00023118,-0.00010127,-0.00024528,0.00000605
 ,-0.00001166,0.00000914,0.00001486,-0.00000540,0.00000084,0.00000164,-
 0.00000342,-0.00000138,-0.00000538,-0.00000339,0.00000789,0.00148251,-
 0.00163048,-0.00286400,-0.00123570,0.00164189,0.00536271,-0.00000118,-
 0.00009766,0.00010563,-0.00006521,0.00004249,0.00013876,-0.16720214,0.
 10239042,-0.12710126,0.18341206,-0.12131669,0.13594400,-0.00113736,0.0
 0030231,0.00016477,0.00089613,0.00010425,0.00019984,-0.00001221,-0.000
 73945,-0.00070777,-0.00127032,-0.00011048,-0.00031970,-0.00026495,-0.0
 0081377,-0.00079784,0.00461250,0.00016917,0.00079142,0.00008070,-0.000
 13986,-0.00012767,-0.00000067,-0.00002592,-0.00002573,0.00008168,-0.00
 008902,-0.00007264,-0.00020171,0.00006480,0.00002782,-0.00619962,0.002
 00886,0.00144219,0.00719156,-0.00123736,-0.00072430,-0.00502676,0.0037
 8832,0.00310780,0.00426825,-0.00078277,-0.00056858,-0.16352868,-0.1279
 6782,-0.14508118,-0.01619943,-0.02146404,-0.01630476,0.17671088,-0.000
 25647,0.00005017,0.00012210,0.00018021,0.00000867,0.00004137,-0.000055
 73,-0.00009970,-0.00013939,-0.00017575,-0.00006733,0.00006628,0.000191
 58,-0.00029278,-0.00058230,0.00150111,-0.00009076,-0.00024892,0.000019
 94,-0.00002087,-0.00003067,-0.00000606,0.00000594,-0.00000284,0.000003
 79,0.00000134,-0.00001519,-0.00003131,0.00001185,-0.00000184,-0.000538
 41,0.00051085,0.00044123,-0.00073380,-0.00210476,-0.00210190,-0.000085
 52,-0.00058246,-0.00080035,0.00093377,-0.00089906,0.00154126,-0.167868
 02,-0.22735257,-0.17394779,0.01998789,0.01437922,0.01912026,0.14693279
 ,0.21654226,-0.00050780,0.00026147,0.00009222,0.00034421,0.00004941,0.
 00007942,-0.00012117,-0.00024301,-0.00021025,-0.00028323,0.00013511,-0
 .00012804,0.00017109,-0.00079753,-0.00034771,0.00260107,-0.00044945,0.
 00023546,0.00003041,-0.00005317,-0.00002832,-0.00001618,-0.00000096,0.
 00000912,0.00000151,-0.00002476,-0.00000004,-0.00005316,0.00000040,0.0
 0000861,-0.00166772,0.00130071,0.00056404,0.00056887,-0.00402272,-0.00
 244934,-0.00048764,-0.00038212,-0.00020512,0.00161860,0.00149432,-0.00
 146016,-0.15083706,-0.13815595,-0.15007975,-0.01035812,-0.01565043,-0.
 01138299,0.15899632,0.15653869,0.16530284\\0.00000351,-0.00000227,-0.0
 0000251,-0.00000168,0.00000154,-0.00000455,0.00000124,0.00000048,0.000
 00563,0.00000193,0.00000348,-0.00000409,0.00000188,-0.00000428,0.00000
 119,-0.00000251,0.00000612,0.00000014,0.00000093,0.00000019,0.00000044
 ,0.00000140,0.00000116,0.00000092,-0.00000010,0.00000091,0.00000037,-0
 .00000098,0.00000051,0.00000062,0.00000430,-0.00000372,0.00000018,-0.0
 0000912,0.00000466,-0.00000098,-0.00000151,0.00000239,0.00000158,-0.00
 000278,-0.00000614,0.00000092,0.00000514,-0.00000605,0.00001663,0.0000
 0182,-0.00000427,-0.00000941,-0.00000346,0.00000531,-0.00000709\\\@


 CHINESE FORTUNE COOKIE OF JAN 1 1967 SAY....
 ALL THINGS ARE DIFFICULT BEFORE THEY ARE EASY.
 WE LEARN SO LITTLE AND FORGET SO MUCH.
 YOU WILL OVERCOME OBSTACLES TO ACHIEVE SUCCESS.
 AH SO.
 Job cpu time:       0 days 17 hours 18 minutes  8.3 seconds.
 File lengths (MBytes):  RWF=    450 Int=      0 D2E=      0 Chk=     29 Scr=      1
 Normal termination of Gaussian 09 at Fri Oct  1 05:07:45 2021.
