 Entering Gaussian System, Link 0=/opt/cluster/programs/g09/g09_d.01/g09//g09
 Input=/home/kaeser/nnprojects/hydra_challenge/b3lypd3/62-53-3.com
 Output=/scratch/kaeser/62-53-3/62-53-3.out
 Initial command:
 /opt/cluster/programs/g09/g09_d.01/g09/l1.exe "/scratch/kaeser/62-53-3/Gau-193353.inp" -scrdir="/scratch/kaeser/62-53-3/"
 Entering Link 1 = /opt/cluster/programs/g09/g09_d.01/g09/l1.exe PID=    193365.
  
 Copyright (c) 1988,1990,1992,1993,1995,1998,2003,2009,2013,
            Gaussian, Inc.  All Rights Reserved.
  
 This is part of the Gaussian(R) 09 program.  It is based on
 the Gaussian(R) 03 system (copyright 2003, Gaussian, Inc.),
 the Gaussian(R) 98 system (copyright 1998, Gaussian, Inc.),
 the Gaussian(R) 94 system (copyright 1995, Gaussian, Inc.),
 the Gaussian 92(TM) system (copyright 1992, Gaussian, Inc.),
 the Gaussian 90(TM) system (copyright 1990, Gaussian, Inc.),
 the Gaussian 88(TM) system (copyright 1988, Gaussian, Inc.),
 the Gaussian 86(TM) system (copyright 1986, Carnegie Mellon
 University), and the Gaussian 82(TM) system (copyright 1983,
 Carnegie Mellon University). Gaussian is a federally registered
 trademark of Gaussian, Inc.
  
 This software contains proprietary and confidential information,
 including trade secrets, belonging to Gaussian, Inc.
  
 This software is provided under written license and may be
 used, copied, transmitted, or stored only in accord with that
 written license.
  
 The following legend is applicable only to US Government
 contracts under FAR:
  
                    RESTRICTED RIGHTS LEGEND
  
 Use, reproduction and disclosure by the US Government is
 subject to restrictions as set forth in subparagraphs (a)
 and (c) of the Commercial Computer Software - Restricted
 Rights clause in FAR 52.227-19.
  
 Gaussian, Inc.
 340 Quinnipiac St., Bldg. 40, Wallingford CT 06492
  
  
 ---------------------------------------------------------------
 Warning -- This program may not be used in any manner that
 competes with the business of Gaussian, Inc. or will provide
 assistance to any competitor of Gaussian, Inc.  The licensee
 of this program is prohibited from giving any competitor of
 Gaussian, Inc. access to this program.  By using this program,
 the user acknowledges that Gaussian, Inc. is engaged in the
 business of creating and licensing software in the field of
 computational chemistry and represents and warrants to the
 licensee that it is not a competitor of Gaussian, Inc. and that
 it will not use this program in any manner prohibited above.
 ---------------------------------------------------------------
  

 Cite this work as:
 Gaussian 09, Revision D.01,
 M. J. Frisch, G. W. Trucks, H. B. Schlegel, G. E. Scuseria, 
 M. A. Robb, J. R. Cheeseman, G. Scalmani, V. Barone, B. Mennucci, 
 G. A. Petersson, H. Nakatsuji, M. Caricato, X. Li, H. P. Hratchian, 
 A. F. Izmaylov, J. Bloino, G. Zheng, J. L. Sonnenberg, M. Hada, 
 M. Ehara, K. Toyota, R. Fukuda, J. Hasegawa, M. Ishida, T. Nakajima, 
 Y. Honda, O. Kitao, H. Nakai, T. Vreven, J. A. Montgomery, Jr., 
 J. E. Peralta, F. Ogliaro, M. Bearpark, J. J. Heyd, E. Brothers, 
 K. N. Kudin, V. N. Staroverov, T. Keith, R. Kobayashi, J. Normand, 
 K. Raghavachari, A. Rendell, J. C. Burant, S. S. Iyengar, J. Tomasi, 
 M. Cossi, N. Rega, J. M. Millam, M. Klene, J. E. Knox, J. B. Cross, 
 V. Bakken, C. Adamo, J. Jaramillo, R. Gomperts, R. E. Stratmann, 
 O. Yazyev, A. J. Austin, R. Cammi, C. Pomelli, J. W. Ochterski, 
 R. L. Martin, K. Morokuma, V. G. Zakrzewski, G. A. Voth, 
 P. Salvador, J. J. Dannenberg, S. Dapprich, A. D. Daniels, 
 O. Farkas, J. B. Foresman, J. V. Ortiz, J. Cioslowski, 
 and D. J. Fox, Gaussian, Inc., Wallingford CT, 2013.
 
 ******************************************
 Gaussian 09:  ES64L-G09RevD.01 24-Apr-2013
                30-Sep-2021 
 ******************************************
 %chk=62-53-3.chk
 %mem=2GB
 %nprocshared=2
 Will use up to    2 processors via shared memory.
 ----------------------------------------------------------------------
 # opt freq b3lyp/aug-cc-pvtz EmpiricalDispersion=GD3 geom=connectivity
 ----------------------------------------------------------------------
 1/14=-1,18=20,19=15,26=3,38=1,57=2/1,3;
 2/9=110,12=2,17=6,18=5,40=1/2;
 3/5=16,6=1,7=10,11=2,16=1,25=1,30=1,71=1,74=-5,124=31/1,2,3;
 4//1;
 5/5=2,38=5/2;
 6/7=2,8=2,9=2,10=2,28=1/1;
 7//1,2,3,16;
 1/14=-1,18=20,19=15,26=3/3(2);
 2/9=110/2;
 99//99;
 2/9=110/2;
 3/5=16,6=1,7=10,11=2,16=1,25=1,30=1,71=1,74=-5,124=31/1,2,3;
 4/5=5,16=3,69=1/1;
 5/5=2,38=5/2;
 7//1,2,3,16;
 1/14=-1,18=20,19=15,26=3/3(-5);
 2/9=110/2;
 6/7=2,8=2,9=2,10=2,19=2,28=1/1;
 99/9=1/99;
 -------------------
 Title Card Required
 -------------------
 Symbolic Z-matrix:
 Charge =  0 Multiplicity = 1
 C                     2.21567  -0.73488  -0.20323 
 C                     1.14974  -1.40874   0.38236 
 C                    -0.04702  -0.75542   0.63686 
 C                    -0.18878   0.59518   0.31513 
 C                     0.87804   1.27054  -0.27476 
 C                     2.06975   0.60669  -0.53215 
 H                     3.14396  -1.2475   -0.40027 
 H                     1.24687  -2.45263   0.6401 
 H                    -0.88507  -1.28769   1.06167 
 H                     0.77244   2.31571  -0.52969 
 H                     2.88759   1.14449  -0.98749 
 N                    -1.4239    1.23661   0.5203 
 H                    -1.89919   0.92795   1.35377 
 H                    -1.3629    2.24151   0.50349 
 O                    -3.14438  -0.80749  -0.67868 
 H                    -2.58135  -1.29358  -1.28184 
 H                    -2.66433   0.01532  -0.51774 
 
 Add virtual bond connecting atoms H17        and N12        Dist= 3.83D+00.

 GradGradGradGradGradGradGradGradGradGradGradGradGradGradGradGradGradGrad
 Berny optimization.
 Initialization pass.
                           ----------------------------
                           !    Initial Parameters    !
                           ! (Angstroms and Degrees)  !
 --------------------------                            --------------------------
 ! Name  Definition              Value          Derivative Info.                !
 --------------------------------------------------------------------------------
 ! R1    R(1,2)                  1.3904         estimate D2E/DX2                !
 ! R2    R(1,6)                  1.389          estimate D2E/DX2                !
 ! R3    R(1,7)                  1.0786         estimate D2E/DX2                !
 ! R4    R(2,3)                  1.387          estimate D2E/DX2                !
 ! R5    R(2,8)                  1.0796         estimate D2E/DX2                !
 ! R6    R(3,4)                  1.3956         estimate D2E/DX2                !
 ! R7    R(3,9)                  1.0799         estimate D2E/DX2                !
 ! R8    R(4,5)                  1.3936         estimate D2E/DX2                !
 ! R9    R(4,12)                 1.4068         estimate D2E/DX2                !
 ! R10   R(5,6)                  1.3882         estimate D2E/DX2                !
 ! R11   R(5,10)                 1.081          estimate D2E/DX2                !
 ! R12   R(6,11)                 1.0795         estimate D2E/DX2                !
 ! R13   R(12,13)                1.0079         estimate D2E/DX2                !
 ! R14   R(12,14)                1.0069         estimate D2E/DX2                !
 ! R15   R(12,17)                2.0268         estimate D2E/DX2                !
 ! R16   R(15,16)                0.9576         estimate D2E/DX2                !
 ! R17   R(15,17)                0.9661         estimate D2E/DX2                !
 ! A1    A(2,1,6)              119.1637         estimate D2E/DX2                !
 ! A2    A(2,1,7)              120.4256         estimate D2E/DX2                !
 ! A3    A(6,1,7)              120.4108         estimate D2E/DX2                !
 ! A4    A(1,2,3)              120.6949         estimate D2E/DX2                !
 ! A5    A(1,2,8)              120.0125         estimate D2E/DX2                !
 ! A6    A(3,2,8)              119.292          estimate D2E/DX2                !
 ! A7    A(2,3,4)              120.078          estimate D2E/DX2                !
 ! A8    A(2,3,9)              120.6388         estimate D2E/DX2                !
 ! A9    A(4,3,9)              119.2661         estimate D2E/DX2                !
 ! A10   A(3,4,5)              119.2615         estimate D2E/DX2                !
 ! A11   A(3,4,12)             119.7891         estimate D2E/DX2                !
 ! A12   A(5,4,12)             120.8549         estimate D2E/DX2                !
 ! A13   A(4,5,6)              120.2577         estimate D2E/DX2                !
 ! A14   A(4,5,10)             119.5772         estimate D2E/DX2                !
 ! A15   A(6,5,10)             120.1651         estimate D2E/DX2                !
 ! A16   A(1,6,5)              120.5409         estimate D2E/DX2                !
 ! A17   A(1,6,11)             120.0971         estimate D2E/DX2                !
 ! A18   A(5,6,11)             119.3614         estimate D2E/DX2                !
 ! A19   A(4,12,13)            113.2657         estimate D2E/DX2                !
 ! A20   A(4,12,14)            113.5422         estimate D2E/DX2                !
 ! A21   A(4,12,17)            100.8301         estimate D2E/DX2                !
 ! A22   A(13,12,14)           110.366          estimate D2E/DX2                !
 ! A23   A(13,12,17)            87.156          estimate D2E/DX2                !
 ! A24   A(14,12,17)           129.0443         estimate D2E/DX2                !
 ! A25   A(16,15,17)           104.1865         estimate D2E/DX2                !
 ! A26   A(12,17,15)           154.5067         estimate D2E/DX2                !
 ! D1    D(6,1,2,3)              0.0305         estimate D2E/DX2                !
 ! D2    D(6,1,2,8)            179.763          estimate D2E/DX2                !
 ! D3    D(7,1,2,3)           -179.9269         estimate D2E/DX2                !
 ! D4    D(7,1,2,8)             -0.1943         estimate D2E/DX2                !
 ! D5    D(2,1,6,5)              0.3068         estimate D2E/DX2                !
 ! D6    D(2,1,6,11)          -179.9938         estimate D2E/DX2                !
 ! D7    D(7,1,6,5)           -179.7358         estimate D2E/DX2                !
 ! D8    D(7,1,6,11)            -0.0365         estimate D2E/DX2                !
 ! D9    D(1,2,3,4)             -0.5171         estimate D2E/DX2                !
 ! D10   D(1,2,3,9)            177.971          estimate D2E/DX2                !
 ! D11   D(8,2,3,4)            179.7484         estimate D2E/DX2                !
 ! D12   D(8,2,3,9)             -1.7635         estimate D2E/DX2                !
 ! D13   D(2,3,4,5)              0.6613         estimate D2E/DX2                !
 ! D14   D(2,3,4,12)           177.1574         estimate D2E/DX2                !
 ! D15   D(9,3,4,5)           -177.8475         estimate D2E/DX2                !
 ! D16   D(9,3,4,12)            -1.3514         estimate D2E/DX2                !
 ! D17   D(3,4,5,6)             -0.3276         estimate D2E/DX2                !
 ! D18   D(3,4,5,10)           179.7568         estimate D2E/DX2                !
 ! D19   D(12,4,5,6)          -176.7853         estimate D2E/DX2                !
 ! D20   D(12,4,5,10)            3.2991         estimate D2E/DX2                !
 ! D21   D(3,4,12,13)           37.1672         estimate D2E/DX2                !
 ! D22   D(3,4,12,14)          164.076          estimate D2E/DX2                !
 ! D23   D(3,4,12,17)          -54.3951         estimate D2E/DX2                !
 ! D24   D(5,4,12,13)         -146.3936         estimate D2E/DX2                !
 ! D25   D(5,4,12,14)          -19.4849         estimate D2E/DX2                !
 ! D26   D(5,4,12,17)          122.044          estimate D2E/DX2                !
 ! D27   D(4,5,6,1)             -0.1571         estimate D2E/DX2                !
 ! D28   D(4,5,6,11)          -179.8586         estimate D2E/DX2                !
 ! D29   D(10,5,6,1)           179.758          estimate D2E/DX2                !
 ! D30   D(10,5,6,11)            0.0565         estimate D2E/DX2                !
 ! D31   D(4,12,17,15)          69.8014         estimate D2E/DX2                !
 ! D32   D(13,12,17,15)        -43.3493         estimate D2E/DX2                !
 ! D33   D(14,12,17,15)       -157.4509         estimate D2E/DX2                !
 ! D34   D(16,15,17,12)        -96.522          estimate D2E/DX2                !
 --------------------------------------------------------------------------------
 Trust Radius=3.00D-01 FncErr=1.00D-07 GrdErr=1.00D-06
 Number of steps in this run=     87 maximum allowed number of steps=    102.
 GradGradGradGradGradGradGradGradGradGradGradGradGradGradGradGradGradGrad

                          Input orientation:                          
 ---------------------------------------------------------------------
 Center     Atomic      Atomic             Coordinates (Angstroms)
 Number     Number       Type             X           Y           Z
 ---------------------------------------------------------------------
      1          6           0        2.215669   -0.734881   -0.203226
      2          6           0        1.149739   -1.408743    0.382363
      3          6           0       -0.047020   -0.755421    0.636860
      4          6           0       -0.188782    0.595179    0.315133
      5          6           0        0.878037    1.270535   -0.274757
      6          6           0        2.069751    0.606686   -0.532154
      7          1           0        3.143963   -1.247495   -0.400270
      8          1           0        1.246867   -2.452629    0.640095
      9          1           0       -0.885069   -1.287692    1.061666
     10          1           0        0.772442    2.315711   -0.529685
     11          1           0        2.887586    1.144491   -0.987488
     12          7           0       -1.423903    1.236606    0.520302
     13          1           0       -1.899191    0.927945    1.353766
     14          1           0       -1.362901    2.241509    0.503492
     15          8           0       -3.144382   -0.807494   -0.678679
     16          1           0       -2.581349   -1.293581   -1.281836
     17          1           0       -2.664328    0.015318   -0.517738
 ---------------------------------------------------------------------
                    Distance matrix (angstroms):
                    1          2          3          4          5
     1  C    0.000000
     2  C    1.390400   0.000000
     3  C    2.413696   1.387022   0.000000
     4  C    2.796273   2.410780   1.395609   0.000000
     5  C    2.411653   2.772032   2.406507   1.393621   0.000000
     6  C    1.388988   2.396814   2.775365   2.412260   1.388211
     7  H    1.078577   2.148359   3.391187   3.874847   3.389786
     8  H    2.144860   1.079610   2.134167   3.384645   3.851615
     9  H    3.394131   2.148616   1.079860   2.141805   3.382173
    10  H    3.390515   3.853017   3.385882   2.144271   1.080986
    11  H    2.144430   3.378699   3.854878   3.385647   2.135921
    12  N    4.201992   3.693309   2.424369   1.406786   2.435610
    13  H    4.703327   3.962286   2.603500   2.028544   3.237661
    14  H    4.707920   4.433100   3.275808   2.030871   2.563253
    15  O    5.381587   4.463943   3.365562   3.419170   4.545461
    16  H    4.948427   4.087033   3.223947   3.441235   4.422245
    17  H    4.947331   4.169561   2.962674   2.675489   3.766027
                    6          7          8          9         10
     6  C    0.000000
     7  H    2.146931   0.000000
     8  H    3.377975   2.476627   0.000000
     9  H    3.854853   4.286254   2.465756   0.000000
    10  H    2.145643   4.282207   4.932599   4.273670   0.000000
    11  H    1.079545   2.476318   4.275542   4.934316   2.460726
    12  N    3.702713   5.280493   4.556075   2.637328   2.662869
    13  H    4.405951   5.765638   4.672824   2.454142   3.551184
    14  H    3.940597   5.770768   5.372567   3.604877   2.373321
    15  O    5.404494   6.309865   4.871212   2.892038   5.011798
    16  H    5.079938   5.792968   4.437617   2.892992   4.984038
    17  H    4.770894   5.945144   4.767472   2.712584   4.135618
                   11         12         13         14         15
    11  H    0.000000
    12  N    4.568463   0.000000
    13  H    5.333066   1.007885   0.000000
    14  H    4.636066   1.006893   1.654093   0.000000
    15  O    6.347460   2.928472   2.948403   3.723926   0.000000
    16  H    5.995005   3.315001   3.513818   4.143534   0.957646
    17  H    5.685019   2.026752   2.218299   2.773545   0.966113
                   16         17
    16  H    0.000000
    17  H    1.517876   0.000000
 Stoichiometry    C6H9NO
 Framework group  C1[X(C6H9NO)]
 Deg. of freedom    45
 Full point group                 C1      NOp   1
 Largest Abelian subgroup         C1      NOp   1
 Largest concise Abelian subgroup C1      NOp   1
                         Standard orientation:                         
 ---------------------------------------------------------------------
 Center     Atomic      Atomic             Coordinates (Angstroms)
 Number     Number       Type             X           Y           Z
 ---------------------------------------------------------------------
      1          6           0        2.215669   -0.734881   -0.203226
      2          6           0        1.149739   -1.408743    0.382363
      3          6           0       -0.047020   -0.755421    0.636860
      4          6           0       -0.188782    0.595179    0.315133
      5          6           0        0.878037    1.270535   -0.274757
      6          6           0        2.069751    0.606686   -0.532154
      7          1           0        3.143963   -1.247495   -0.400270
      8          1           0        1.246867   -2.452629    0.640095
      9          1           0       -0.885069   -1.287692    1.061666
     10          1           0        0.772442    2.315711   -0.529685
     11          1           0        2.887586    1.144491   -0.987488
     12          7           0       -1.423903    1.236606    0.520302
     13          1           0       -1.899191    0.927945    1.353766
     14          1           0       -1.362901    2.241509    0.503492
     15          8           0       -3.144382   -0.807494   -0.678679
     16          1           0       -2.581349   -1.293581   -1.281836
     17          1           0       -2.664328    0.015318   -0.517738
 ---------------------------------------------------------------------
 Rotational constants (GHZ):      3.3382017      1.2830332      1.0445841
 Standard basis: Aug-CC-pVTZ (5D, 7F)
 There are   665 symmetry adapted cartesian basis functions of A   symmetry.
 There are   575 symmetry adapted basis functions of A   symmetry.
   575 basis functions,   819 primitive gaussians,   665 cartesian basis functions
    30 alpha electrons       30 beta electrons
       nuclear repulsion energy       348.9710572086 Hartrees.
 NAtoms=   17 NActive=   17 NUniq=   17 SFac= 1.00D+00 NAtFMM=   60 NAOKFM=F Big=F
 Integral buffers will be    131072 words long.
 Raffenetti 2 integral format.
 Two-electron integral symmetry is turned on.
 Nuclear repulsion after empirical dispersion term =      348.9603222124 Hartrees.
 One-electron integrals computed using PRISM.
 NBasis=   575 RedAO= T EigKep=  1.16D-06  NBF=   575
 NBsUse=   573 1.00D-06 EigRej=  8.03D-07 NBFU=   573
 ExpMin= 2.53D-02 ExpMax= 1.53D+04 ExpMxC= 5.22D+02 IAcc=3 IRadAn=         5 AccDes= 0.00D+00
 Harris functional with IExCor=  402 and IRadAn=       5 diagonalized for initial guess.
 HarFok:  IExCor=  402 AccDes= 0.00D+00 IRadAn=         5 IDoV= 1 UseB2=F ITyADJ=14
 ICtDFT=  3500011 ScaDFX=  1.000000  1.000000  1.000000  1.000000
 FoFCou: FMM=F IPFlag=           0 FMFlag=      100000 FMFlg1=           0
         NFxFlg=           0 DoJE=T BraDBF=F KetDBF=T FulRan=T
         wScrn=  0.000000 ICntrl=     500 IOpCl=  0 I1Cent=   200000004 NGrid=           0
         NMat0=    1 NMatS0=      1 NMatT0=    0 NMatD0=    1 NMtDS0=    0 NMtDT0=    0
 Petite list used in FoFCou.
 Requested convergence on RMS density matrix=1.00D-08 within 128 cycles.
 Requested convergence on MAX density matrix=1.00D-06.
 Requested convergence on             energy=1.00D-06.
 No special actions if energy rises.
 SCF Done:  E(RB3LYP) =  -364.199565435     A.U. after   12 cycles
            NFock= 12  Conv=0.41D-08     -V/T= 2.0060

 **********************************************************************

            Population analysis using the SCF density.

 **********************************************************************

 Orbital symmetries:
       Occupied  (A) (A) (A) (A) (A) (A) (A) (A) (A) (A) (A) (A)
                 (A) (A) (A) (A) (A) (A) (A) (A) (A) (A) (A) (A)
                 (A) (A) (A) (A) (A) (A)
       Virtual   (A) (A) (A) (A) (A) (A) (A) (A) (A) (A) (A) (A)
                 (A) (A) (A) (A) (A) (A) (A) (A) (A) (A) (A) (A)
                 (A) (A) (A) (A) (A) (A) (A) (A) (A) (A) (A) (A)
                 (A) (A) (A) (A) (A) (A) (A) (A) (A) (A) (A) (A)
                 (A) (A) (A) (A) (A) (A) (A) (A) (A) (A) (A) (A)
                 (A) (A) (A) (A) (A) (A) (A) (A) (A) (A) (A) (A)
                 (A) (A) (A) (A) (A) (A) (A) (A) (A) (A) (A) (A)
                 (A) (A) (A) (A) (A) (A) (A) (A) (A) (A) (A) (A)
                 (A) (A) (A) (A) (A) (A) (A) (A) (A) (A) (A) (A)
                 (A) (A) (A) (A) (A) (A) (A) (A) (A) (A) (A) (A)
                 (A) (A) (A) (A) (A) (A) (A) (A) (A) (A) (A) (A)
                 (A) (A) (A) (A) (A) (A) (A) (A) (A) (A) (A) (A)
                 (A) (A) (A) (A) (A) (A) (A) (A) (A) (A) (A) (A)
                 (A) (A) (A) (A) (A) (A) (A) (A) (A) (A) (A) (A)
                 (A) (A) (A) (A) (A) (A) (A) (A) (A) (A) (A) (A)
                 (A) (A) (A) (A) (A) (A) (A) (A) (A) (A) (A) (A)
                 (A) (A) (A) (A) (A) (A) (A) (A) (A) (A) (A) (A)
                 (A) (A) (A) (A) (A) (A) (A) (A) (A) (A) (A) (A)
                 (A) (A) (A) (A) (A) (A) (A) (A) (A) (A) (A) (A)
                 (A) (A) (A) (A) (A) (A) (A) (A) (A) (A) (A) (A)
                 (A) (A) (A) (A) (A) (A) (A) (A) (A) (A) (A) (A)
                 (A) (A) (A) (A) (A) (A) (A) (A) (A) (A) (A) (A)
                 (A) (A) (A) (A) (A) (A) (A) (A) (A) (A) (A) (A)
                 (A) (A) (A) (A) (A) (A) (A) (A) (A) (A) (A) (A)
                 (A) (A) (A) (A) (A) (A) (A) (A) (A) (A) (A) (A)
                 (A) (A) (A) (A) (A) (A) (A) (A) (A) (A) (A) (A)
                 (A) (A) (A) (A) (A) (A) (A) (A) (A) (A) (A) (A)
                 (A) (A) (A) (A) (A) (A) (A) (A) (A) (A) (A) (A)
                 (A) (A) (A) (A) (A) (A) (A) (A) (A) (A) (A) (A)
                 (A) (A) (A) (A) (A) (A) (A) (A) (A) (A) (A) (A)
                 (A) (A) (A) (A) (A) (A) (A) (A) (A) (A) (A) (A)
                 (A) (A) (A) (A) (A) (A) (A) (A) (A) (A) (A) (A)
                 (A) (A) (A) (A) (A) (A) (A) (A) (A) (A) (A) (A)
                 (A) (A) (A) (A) (A) (A) (A) (A) (A) (A) (A) (A)
                 (A) (A) (A) (A) (A) (A) (A) (A) (A) (A) (A) (A)
                 (A) (A) (A) (A) (A) (A) (A) (A) (A) (A) (A) (A)
                 (A) (A) (A) (A) (A) (A) (A) (A) (A) (A) (A) (A)
                 (A) (A) (A) (A) (A) (A) (A) (A) (A) (A) (A) (A)
                 (A) (A) (A) (A) (A) (A) (A) (A) (A) (A) (A) (A)
                 (A) (A) (A) (A) (A) (A) (A) (A) (A) (A) (A) (A)
                 (A) (A) (A) (A) (A) (A) (A) (A) (A) (A) (A) (A)
                 (A) (A) (A) (A) (A) (A) (A) (A) (A) (A) (A) (A)
                 (A) (A) (A) (A) (A) (A) (A) (A) (A) (A) (A) (A)
                 (A) (A) (A) (A) (A) (A) (A) (A) (A) (A) (A) (A)
                 (A) (A) (A) (A) (A) (A) (A) (A) (A) (A) (A) (A)
                 (A) (A) (A)
 The electronic state is 1-A.
 Alpha  occ. eigenvalues --  -19.11143 -14.34237 -10.22582 -10.18392 -10.18318
 Alpha  occ. eigenvalues --  -10.18112 -10.17825 -10.17502  -0.99612  -0.93866
 Alpha  occ. eigenvalues --   -0.85161  -0.75697  -0.73953  -0.62553  -0.61016
 Alpha  occ. eigenvalues --   -0.53820  -0.52790  -0.51155  -0.48885  -0.44576
 Alpha  occ. eigenvalues --   -0.44207  -0.43025  -0.40407  -0.37466  -0.36906
 Alpha  occ. eigenvalues --   -0.35374  -0.32926  -0.30009  -0.26472  -0.23026
 Alpha virt. eigenvalues --   -0.02311  -0.02052  -0.01302  -0.00394   0.00042
 Alpha virt. eigenvalues --    0.01243   0.02025   0.02110   0.03676   0.04364
 Alpha virt. eigenvalues --    0.04711   0.04881   0.05335   0.05861   0.06995
 Alpha virt. eigenvalues --    0.07230   0.07744   0.08143   0.08273   0.08478
 Alpha virt. eigenvalues --    0.09050   0.09333   0.09804   0.10144   0.10398
 Alpha virt. eigenvalues --    0.10703   0.11268   0.11400   0.12343   0.13326
 Alpha virt. eigenvalues --    0.13831   0.14521   0.15169   0.15603   0.16029
 Alpha virt. eigenvalues --    0.16409   0.16916   0.17603   0.18570   0.19107
 Alpha virt. eigenvalues --    0.19377   0.19737   0.19919   0.20315   0.20796
 Alpha virt. eigenvalues --    0.21117   0.21611   0.21862   0.22631   0.22887
 Alpha virt. eigenvalues --    0.23133   0.23999   0.24230   0.24757   0.25878
 Alpha virt. eigenvalues --    0.26440   0.27111   0.27467   0.27752   0.28646
 Alpha virt. eigenvalues --    0.28797   0.29150   0.29664   0.30334   0.31277
 Alpha virt. eigenvalues --    0.32146   0.32235   0.32779   0.33231   0.33821
 Alpha virt. eigenvalues --    0.34023   0.34414   0.34710   0.35010   0.35468
 Alpha virt. eigenvalues --    0.36071   0.36258   0.36512   0.37385   0.37979
 Alpha virt. eigenvalues --    0.39320   0.39405   0.40649   0.40983   0.41247
 Alpha virt. eigenvalues --    0.41484   0.42015   0.42964   0.43069   0.43420
 Alpha virt. eigenvalues --    0.43930   0.44694   0.44940   0.45540   0.45929
 Alpha virt. eigenvalues --    0.46134   0.47643   0.47691   0.49527   0.49946
 Alpha virt. eigenvalues --    0.51500   0.52011   0.52881   0.52961   0.54019
 Alpha virt. eigenvalues --    0.54286   0.54755   0.55589   0.56374   0.56792
 Alpha virt. eigenvalues --    0.57595   0.58399   0.59063   0.59785   0.60093
 Alpha virt. eigenvalues --    0.60926   0.62083   0.62442   0.63218   0.64715
 Alpha virt. eigenvalues --    0.65288   0.65746   0.66326   0.67028   0.67589
 Alpha virt. eigenvalues --    0.68670   0.68865   0.70389   0.71235   0.71645
 Alpha virt. eigenvalues --    0.72358   0.72383   0.73022   0.73565   0.73887
 Alpha virt. eigenvalues --    0.74306   0.74482   0.76226   0.76582   0.76945
 Alpha virt. eigenvalues --    0.77556   0.77894   0.78573   0.79519   0.80483
 Alpha virt. eigenvalues --    0.80589   0.80795   0.81923   0.82707   0.83318
 Alpha virt. eigenvalues --    0.84180   0.84474   0.84800   0.85968   0.86631
 Alpha virt. eigenvalues --    0.87116   0.88428   0.88844   0.89333   0.90664
 Alpha virt. eigenvalues --    0.90865   0.91903   0.92094   0.92670   0.93559
 Alpha virt. eigenvalues --    0.93634   0.94018   0.94403   0.96042   0.96183
 Alpha virt. eigenvalues --    0.96797   0.98024   0.98267   0.98629   1.00315
 Alpha virt. eigenvalues --    1.00725   1.01389   1.01846   1.02375   1.02812
 Alpha virt. eigenvalues --    1.03583   1.04148   1.04721   1.05106   1.05579
 Alpha virt. eigenvalues --    1.06076   1.06643   1.07335   1.07796   1.08742
 Alpha virt. eigenvalues --    1.09565   1.09977   1.10512   1.10992   1.12981
 Alpha virt. eigenvalues --    1.14001   1.14505   1.16019   1.16788   1.18292
 Alpha virt. eigenvalues --    1.19324   1.19593   1.20378   1.20707   1.21374
 Alpha virt. eigenvalues --    1.22125   1.23440   1.24152   1.25540   1.26604
 Alpha virt. eigenvalues --    1.27430   1.28130   1.28244   1.29932   1.30578
 Alpha virt. eigenvalues --    1.31021   1.32051   1.33947   1.34381   1.35154
 Alpha virt. eigenvalues --    1.35848   1.36888   1.38701   1.39203   1.40552
 Alpha virt. eigenvalues --    1.41435   1.42019   1.43562   1.43956   1.46204
 Alpha virt. eigenvalues --    1.46733   1.47951   1.49158   1.49747   1.50701
 Alpha virt. eigenvalues --    1.51400   1.53928   1.54352   1.55727   1.56411
 Alpha virt. eigenvalues --    1.57195   1.57764   1.59570   1.60104   1.61718
 Alpha virt. eigenvalues --    1.62056   1.63701   1.64883   1.65419   1.65799
 Alpha virt. eigenvalues --    1.66938   1.67163   1.69009   1.69540   1.70349
 Alpha virt. eigenvalues --    1.71569   1.72326   1.73425   1.75309   1.77366
 Alpha virt. eigenvalues --    1.77970   1.79588   1.80399   1.81619   1.81741
 Alpha virt. eigenvalues --    1.82453   1.83531   1.85234   1.85458   1.86772
 Alpha virt. eigenvalues --    1.87114   1.89047   1.89204   1.90438   1.91808
 Alpha virt. eigenvalues --    1.92509   1.93090   1.94699   1.95263   1.96739
 Alpha virt. eigenvalues --    1.98371   1.99980   2.00094   2.02534   2.04096
 Alpha virt. eigenvalues --    2.04679   2.06720   2.09499   2.11204   2.13392
 Alpha virt. eigenvalues --    2.14027   2.15374   2.16004   2.18016   2.18375
 Alpha virt. eigenvalues --    2.19208   2.19976   2.20762   2.23193   2.24075
 Alpha virt. eigenvalues --    2.25606   2.26593   2.27585   2.28735   2.30231
 Alpha virt. eigenvalues --    2.31581   2.32627   2.33736   2.37306   2.38931
 Alpha virt. eigenvalues --    2.39615   2.41042   2.42582   2.45679   2.47115
 Alpha virt. eigenvalues --    2.48222   2.51403   2.52432   2.53106   2.53943
 Alpha virt. eigenvalues --    2.57150   2.58049   2.59622   2.61374   2.62211
 Alpha virt. eigenvalues --    2.63628   2.67542   2.71297   2.74520   2.77026
 Alpha virt. eigenvalues --    2.81797   2.82288   2.85127   2.86535   2.88495
 Alpha virt. eigenvalues --    2.90218   2.92641   2.93883   2.96560   2.98878
 Alpha virt. eigenvalues --    3.02655   3.03306   3.04189   3.08980   3.09875
 Alpha virt. eigenvalues --    3.11279   3.12121   3.12687   3.14507   3.15111
 Alpha virt. eigenvalues --    3.17118   3.20957   3.23205   3.23533   3.24789
 Alpha virt. eigenvalues --    3.25187   3.27383   3.27790   3.29484   3.30367
 Alpha virt. eigenvalues --    3.30650   3.32714   3.35135   3.36130   3.38162
 Alpha virt. eigenvalues --    3.41538   3.43171   3.47650   3.49232   3.50268
 Alpha virt. eigenvalues --    3.51089   3.51466   3.51937   3.53535   3.54390
 Alpha virt. eigenvalues --    3.56554   3.58219   3.58347   3.58818   3.60680
 Alpha virt. eigenvalues --    3.63733   3.64725   3.65915   3.67126   3.68007
 Alpha virt. eigenvalues --    3.69924   3.71737   3.72541   3.74723   3.77492
 Alpha virt. eigenvalues --    3.78723   3.79401   3.81015   3.83146   3.84170
 Alpha virt. eigenvalues --    3.85283   3.87275   3.88902   3.90335   3.91901
 Alpha virt. eigenvalues --    3.92810   3.93921   3.95361   3.96238   3.97861
 Alpha virt. eigenvalues --    3.98310   3.98887   3.99997   4.00396   4.01593
 Alpha virt. eigenvalues --    4.03214   4.04798   4.06434   4.06884   4.07458
 Alpha virt. eigenvalues --    4.08001   4.08894   4.10119   4.11048   4.13302
 Alpha virt. eigenvalues --    4.13447   4.15724   4.16017   4.17646   4.18513
 Alpha virt. eigenvalues --    4.19524   4.21048   4.23255   4.25002   4.26382
 Alpha virt. eigenvalues --    4.29431   4.31083   4.32596   4.33196   4.36068
 Alpha virt. eigenvalues --    4.37054   4.38159   4.39973   4.41381   4.42786
 Alpha virt. eigenvalues --    4.45953   4.46788   4.47334   4.50423   4.52021
 Alpha virt. eigenvalues --    4.54213   4.55465   4.56594   4.59322   4.59667
 Alpha virt. eigenvalues --    4.62181   4.63791   4.64970   4.66997   4.68603
 Alpha virt. eigenvalues --    4.72044   4.72431   4.74435   4.77263   4.78072
 Alpha virt. eigenvalues --    4.79486   4.81971   4.82583   4.84298   4.84573
 Alpha virt. eigenvalues --    4.86730   4.87556   4.88993   4.90270   4.91047
 Alpha virt. eigenvalues --    4.94381   4.95751   4.96879   4.98519   4.99909
 Alpha virt. eigenvalues --    5.00598   5.01417   5.04294   5.06354   5.08432
 Alpha virt. eigenvalues --    5.10800   5.12745   5.16996   5.17632   5.20869
 Alpha virt. eigenvalues --    5.22350   5.26489   5.30665   5.34082   5.35052
 Alpha virt. eigenvalues --    5.39890   5.42085   5.43746   5.49117   5.50331
 Alpha virt. eigenvalues --    5.54218   5.58800   5.62149   5.64214   5.71166
 Alpha virt. eigenvalues --    5.72464   5.78773   5.82218   5.85978   5.90092
 Alpha virt. eigenvalues --    5.91589   5.94315   5.97417   6.03422   6.07695
 Alpha virt. eigenvalues --    6.12988   6.13984   6.29631   6.32744   6.37718
 Alpha virt. eigenvalues --    6.41780   6.43806   6.49835   6.54637   6.57687
 Alpha virt. eigenvalues --    6.64870   6.78977   6.80328   6.84283   6.88686
 Alpha virt. eigenvalues --    6.91964   6.98152   7.00774   7.04761   7.05818
 Alpha virt. eigenvalues --    7.29525   7.43449   7.53197   7.59348   8.37689
 Alpha virt. eigenvalues --   15.34626  15.47916  16.02507  16.93401  17.82390
 Alpha virt. eigenvalues --   18.66728  19.13755  19.18428
          Condensed to atoms (all electrons):
               1          2          3          4          5          6
     1  C    6.329101  -0.103361   0.151513  -0.226685   0.183555  -0.103093
     2  C   -0.103361   6.756715  -0.048655   0.000380  -0.263370   0.176320
     3  C    0.151513  -0.048655   7.088665  -0.245468   0.214415  -0.294232
     4  C   -0.226685   0.000380  -0.245468   5.727069  -0.420425   0.036181
     5  C    0.183555  -0.263370   0.214415  -0.420425   7.424593  -0.022396
     6  C   -0.103093   0.176320  -0.294232   0.036181  -0.022396   6.487488
     7  H    0.365299  -0.219512   0.064946  -0.027545   0.066666  -0.219434
     8  H   -0.181347   0.339920  -0.168038   0.038563   0.006186   0.035342
     9  H    0.030456  -0.228383   0.142333  -0.081283  -0.008848   0.012399
    10  H    0.018955   0.012159  -0.003505  -0.023656   0.180422  -0.180796
    11  H   -0.178626   0.034282   0.006232   0.054129  -0.201919   0.370309
    12  N    0.023128   0.022349  -0.203557  -0.269297  -0.223113   0.037020
    13  H    0.004340   0.011348   0.002272  -0.059808  -0.004535  -0.006829
    14  H   -0.003931  -0.000675  -0.023936   0.074102  -0.033991   0.004767
    15  O    0.000629  -0.004250  -0.023669   0.019016  -0.001765   0.001375
    16  H    0.000337  -0.004807   0.002563  -0.004900   0.001360   0.000231
    17  H    0.000937  -0.003050   0.010706  -0.034455  -0.005948   0.001667
               7          8          9         10         11         12
     1  C    0.365299  -0.181347   0.030456   0.018955  -0.178626   0.023128
     2  C   -0.219512   0.339920  -0.228383   0.012159   0.034282   0.022349
     3  C    0.064946  -0.168038   0.142333  -0.003505   0.006232  -0.203557
     4  C   -0.027545   0.038563  -0.081283  -0.023656   0.054129  -0.269297
     5  C    0.066666   0.006186  -0.008848   0.180422  -0.201919  -0.223113
     6  C   -0.219434   0.035342   0.012399  -0.180796   0.370309   0.037020
     7  H    0.614077  -0.003697  -0.005908  -0.003784  -0.000566   0.001678
     8  H   -0.003697   0.532095   0.026346   0.000880  -0.003171   0.000278
     9  H   -0.005908   0.026346   0.746773  -0.000518   0.000681  -0.035808
    10  H   -0.003784   0.000880  -0.000518   0.683672   0.021906  -0.027980
    11  H   -0.000566  -0.003171   0.000681   0.021906   0.521097  -0.003279
    12  N    0.001678   0.000278  -0.035808  -0.027980  -0.003279   7.500851
    13  H   -0.000094   0.000137  -0.000667   0.002565  -0.000209   0.355636
    14  H   -0.000134  -0.000050   0.001380   0.001826   0.000170   0.263389
    15  O    0.000028   0.000459  -0.005580  -0.000040  -0.000010  -0.024005
    16  H   -0.000036  -0.000296  -0.001335   0.000217   0.000108   0.003726
    17  H   -0.000028   0.000026   0.004179  -0.000404   0.000028   0.053597
              13         14         15         16         17
     1  C    0.004340  -0.003931   0.000629   0.000337   0.000937
     2  C    0.011348  -0.000675  -0.004250  -0.004807  -0.003050
     3  C    0.002272  -0.023936  -0.023669   0.002563   0.010706
     4  C   -0.059808   0.074102   0.019016  -0.004900  -0.034455
     5  C   -0.004535  -0.033991  -0.001765   0.001360  -0.005948
     6  C   -0.006829   0.004767   0.001375   0.000231   0.001667
     7  H   -0.000094  -0.000134   0.000028  -0.000036  -0.000028
     8  H    0.000137  -0.000050   0.000459  -0.000296   0.000026
     9  H   -0.000667   0.001380  -0.005580  -0.001335   0.004179
    10  H    0.002565   0.001826  -0.000040   0.000217  -0.000404
    11  H   -0.000209   0.000170  -0.000010   0.000108   0.000028
    12  N    0.355636   0.263389  -0.024005   0.003726   0.053597
    13  H    0.835603  -0.121120   0.014749   0.002430   0.006146
    14  H   -0.121120   0.873428   0.001730  -0.001844  -0.010716
    15  O    0.014749   0.001730   8.060516   0.239821   0.175339
    16  H    0.002430  -0.001844   0.239821   0.577013   0.024488
    17  H    0.006146  -0.010716   0.175339   0.024488   0.543880
 Mulliken charges:
               1
     1  C   -0.311208
     2  C   -0.477409
     3  C   -0.672586
     4  C    1.444081
     5  C   -0.890886
     6  C   -0.336321
     7  H    0.368045
     8  H    0.376367
     9  H    0.403783
    10  H    0.318082
    11  H    0.378838
    12  N   -0.474616
    13  H   -0.041965
    14  H   -0.024396
    15  O   -0.454344
    16  H    0.160926
    17  H    0.233608
 Sum of Mulliken charges =   0.00000
 Mulliken charges with hydrogens summed into heavy atoms:
               1
     1  C    0.056837
     2  C   -0.101042
     3  C   -0.268803
     4  C    1.444081
     5  C   -0.572804
     6  C    0.042517
    12  N   -0.540976
    15  O   -0.059810
 Electronic spatial extent (au):  <R**2>=           1155.5744
 Charge=              0.0000 electrons
 Dipole moment (field-independent basis, Debye):
    X=              1.7894    Y=              1.5777    Z=              0.6923  Tot=              2.4840
 Quadrupole moment (field-independent basis, Debye-Ang):
   XX=            -58.7656   YY=            -42.1893   ZZ=            -48.7537
   XY=             -4.7287   XZ=             -4.8730   YZ=              0.9151
 Traceless Quadrupole moment (field-independent basis, Debye-Ang):
   XX=             -8.8627   YY=              7.7136   ZZ=              1.1491
   XY=             -4.7287   XZ=             -4.8730   YZ=              0.9151
 Octapole moment (field-independent basis, Debye-Ang**2):
  XXX=             41.7203  YYY=              6.9794  ZZZ=             -0.7636  XYY=             -7.2267
  XXY=             13.2397  XXZ=              5.5464  XZZ=            -14.0449  YZZ=             -0.9092
  YYZ=             -0.4642  XYZ=             -6.7971
 Hexadecapole moment (field-independent basis, Debye-Ang**3):
 XXXX=          -1167.3592 YYYY=           -342.7614 ZZZZ=           -142.9345 XXXY=            -52.7351
 XXXZ=            -56.6102 YYYX=             -9.5024 YYYZ=              4.2025 ZZZX=              2.2804
 ZZZY=             11.5874 XXYY=           -220.2428 XXZZ=           -185.9261 YYZZ=            -85.2838
 XXYZ=              5.5070 YYXZ=              1.0754 ZZXY=              7.3203
 N-N= 3.489603222124D+02 E-N=-1.546156484934D+03  KE= 3.620124798450D+02
 Calling FoFJK, ICntrl=      2127 FMM=F ISym2X=0 I1Cent= 0 IOpClX= 0 NMat=1 NMatS=1 NMatT=0.
 ***** Axes restored to original set *****
 -------------------------------------------------------------------
 Center     Atomic                   Forces (Hartrees/Bohr)
 Number     Number              X              Y              Z
 -------------------------------------------------------------------
      1        6          -0.000237640    0.000056567    0.000089197
      2        6          -0.000240910    0.000330934    0.000098449
      3        6           0.001064900   -0.000379592   -0.000438212
      4        6           0.000595663   -0.000523683   -0.000289144
      5        6           0.000841015   -0.000314835   -0.000308340
      6        6          -0.000478818    0.000098069    0.000147552
      7        1           0.001348985   -0.000760892   -0.000307236
      8        1           0.000160504   -0.001522851    0.000349721
      9        1          -0.000702991   -0.000988216    0.001053861
     10        1           0.000161935    0.001439208   -0.000531591
     11        1           0.001199735    0.000752140   -0.000670273
     12        7          -0.000140035    0.000075096    0.000311529
     13        1          -0.001651482    0.000010642    0.001707308
     14        1          -0.000988072    0.002076749   -0.000253460
     15        8          -0.003738556   -0.001536684    0.000182470
     16        1           0.001301192   -0.002993092   -0.002433540
     17        1           0.001504574    0.004180439    0.001291708
 -------------------------------------------------------------------
 Cartesian Forces:  Max     0.004180439 RMS     0.001263652

 GradGradGradGradGradGradGradGradGradGradGradGradGradGradGradGradGradGrad
 Berny optimization.
 FormGI is forming the generalized inverse of G from B-inverse, IUseBI=4.
 Internal  Forces:  Max     0.005439759 RMS     0.001253336
 Search for a local minimum.
 Step number   1 out of a maximum of   87
 All quantities printed in internal units (Hartrees-Bohrs-Radians)
 Mixed Optimization -- RFO/linear search
 Second derivative matrix not updated -- first step.
 ITU=  0
     Eigenvalues ---    0.00230   0.01477   0.01602   0.01946   0.02169
     Eigenvalues ---    0.02202   0.02210   0.02224   0.02228   0.02233
     Eigenvalues ---    0.02240   0.02242   0.04122   0.05308   0.07970
     Eigenvalues ---    0.10922   0.13387   0.15995   0.16000   0.16000
     Eigenvalues ---    0.16000   0.16000   0.16000   0.16000   0.22000
     Eigenvalues ---    0.22000   0.23464   0.24951   0.25000   0.35875
     Eigenvalues ---    0.36011   0.36041   0.36049   0.36167   0.42690
     Eigenvalues ---    0.42833   0.44514   0.46328   0.46497   0.46732
     Eigenvalues ---    0.46987   0.47463   0.47749   0.54179   0.55983
 RFO step:  Lambda=-4.47913713D-04 EMin= 2.30000000D-03
 Linear search not attempted -- first point.
 Iteration  1 RMS(Cart)=  0.02519311 RMS(Int)=  0.00029149
 Iteration  2 RMS(Cart)=  0.00050478 RMS(Int)=  0.00001069
 Iteration  3 RMS(Cart)=  0.00000037 RMS(Int)=  0.00001068
 Variable       Old X    -DE/DX   Delta X   Delta X   Delta X     New X
                                 (Linear)    (Quad)   (Total)
    R1        2.62747   0.00108   0.00000   0.00218   0.00218   2.62966
    R2        2.62481   0.00119   0.00000   0.00242   0.00242   2.62722
    R3        2.03822   0.00158   0.00000   0.00436   0.00436   2.04258
    R4        2.62109   0.00104   0.00000   0.00216   0.00216   2.62325
    R5        2.04017   0.00157   0.00000   0.00435   0.00435   2.04452
    R6        2.63732   0.00231   0.00000   0.00506   0.00507   2.64239
    R7        2.04064   0.00145   0.00000   0.00402   0.00402   2.04466
    R8        2.63356   0.00237   0.00000   0.00517   0.00517   2.63873
    R9        2.65844   0.00420   0.00000   0.00943   0.00943   2.66787
   R10        2.62334   0.00102   0.00000   0.00214   0.00214   2.62548
   R11        2.04277   0.00150   0.00000   0.00418   0.00418   2.04694
   R12        2.04004   0.00157   0.00000   0.00434   0.00434   2.04438
   R13        1.90463   0.00219   0.00000   0.00472   0.00472   1.90935
   R14        1.90275   0.00202   0.00000   0.00433   0.00433   1.90708
   R15        3.83001   0.00128   0.00000   0.03063   0.03063   3.86064
   R16        1.80969   0.00382   0.00000   0.00682   0.00682   1.81651
   R17        1.82569   0.00544   0.00000   0.01003   0.01003   1.83572
    A1        2.07980  -0.00001   0.00000  -0.00054  -0.00054   2.07926
    A2        2.10182   0.00000   0.00000   0.00023   0.00023   2.10205
    A3        2.10156   0.00001   0.00000   0.00031   0.00031   2.10187
    A4        2.10652   0.00014   0.00000   0.00031   0.00031   2.10684
    A5        2.09461  -0.00010   0.00000  -0.00032  -0.00032   2.09430
    A6        2.08204  -0.00004   0.00000   0.00001   0.00001   2.08205
    A7        2.09576   0.00037   0.00000   0.00179   0.00179   2.09754
    A8        2.10554  -0.00067   0.00000  -0.00380  -0.00382   2.10172
    A9        2.08159   0.00030   0.00000   0.00225   0.00223   2.08382
   A10        2.08151  -0.00098   0.00000  -0.00359  -0.00359   2.07792
   A11        2.09071   0.00121   0.00000   0.00478   0.00477   2.09549
   A12        2.10932  -0.00023   0.00000  -0.00098  -0.00098   2.10833
   A13        2.09889   0.00031   0.00000   0.00152   0.00152   2.10041
   A14        2.08702   0.00020   0.00000   0.00147   0.00147   2.08849
   A15        2.09728  -0.00051   0.00000  -0.00299  -0.00299   2.09429
   A16        2.10384   0.00017   0.00000   0.00052   0.00052   2.10435
   A17        2.09609  -0.00012   0.00000  -0.00046  -0.00045   2.09563
   A18        2.08325  -0.00006   0.00000  -0.00007  -0.00006   2.08318
   A19        1.97686   0.00091   0.00000   0.01003   0.01000   1.98686
   A20        1.98169   0.00018   0.00000   0.00070   0.00069   1.98237
   A21        1.75982   0.00113   0.00000   0.00654   0.00652   1.76634
   A22        1.92625  -0.00049   0.00000  -0.00345  -0.00347   1.92278
   A23        1.52116   0.00013   0.00000   0.00356   0.00351   1.52467
   A24        2.25225  -0.00167   0.00000  -0.01450  -0.01450   2.23775
   A25        1.81840   0.00255   0.00000   0.01592   0.01592   1.83432
   A26        2.69665   0.00170   0.00000   0.00679   0.00679   2.70344
    D1        0.00053   0.00006   0.00000   0.00258   0.00257   0.00310
    D2        3.13746   0.00008   0.00000   0.00348   0.00347   3.14093
    D3       -3.14032   0.00002   0.00000   0.00090   0.00089  -3.13942
    D4       -0.00339   0.00004   0.00000   0.00180   0.00179  -0.00160
    D5        0.00536  -0.00002   0.00000  -0.00103  -0.00103   0.00432
    D6       -3.14149  -0.00003   0.00000  -0.00120  -0.00120   3.14050
    D7       -3.13698   0.00002   0.00000   0.00065   0.00065  -3.13633
    D8       -0.00064   0.00001   0.00000   0.00048   0.00048  -0.00016
    D9       -0.00903  -0.00003   0.00000  -0.00107  -0.00106  -0.01009
   D10        3.10618   0.00022   0.00000   0.00974   0.00972   3.11590
   D11        3.13720  -0.00005   0.00000  -0.00196  -0.00196   3.13525
   D12       -0.03078   0.00020   0.00000   0.00884   0.00883  -0.02195
   D13        0.01154  -0.00005   0.00000  -0.00202  -0.00201   0.00953
   D14        3.09198   0.00002   0.00000   0.00181   0.00181   3.09379
   D15       -3.10402  -0.00028   0.00000  -0.01258  -0.01260  -3.11662
   D16       -0.02359  -0.00020   0.00000  -0.00876  -0.00877  -0.03236
   D17       -0.00572   0.00009   0.00000   0.00356   0.00355  -0.00217
   D18        3.13735   0.00003   0.00000   0.00080   0.00079   3.13814
   D19       -3.08549  -0.00004   0.00000  -0.00052  -0.00051  -3.08600
   D20        0.05758  -0.00010   0.00000  -0.00328  -0.00328   0.05430
   D21        0.64869  -0.00018   0.00000  -0.02137  -0.02136   0.62733
   D22        2.86367   0.00008   0.00000  -0.01686  -0.01685   2.84681
   D23       -0.94937  -0.00101   0.00000  -0.03020  -0.03022  -0.97960
   D24       -2.55505  -0.00013   0.00000  -0.01757  -0.01755  -2.57260
   D25       -0.34008   0.00013   0.00000  -0.01306  -0.01305  -0.35312
   D26        2.13007  -0.00096   0.00000  -0.02640  -0.02642   2.10365
   D27       -0.00274  -0.00005   0.00000  -0.00203  -0.00203  -0.00477
   D28       -3.13912  -0.00004   0.00000  -0.00186  -0.00186  -3.14099
   D29        3.13737   0.00001   0.00000   0.00075   0.00074   3.13811
   D30        0.00099   0.00002   0.00000   0.00092   0.00091   0.00190
   D31        1.21826   0.00043   0.00000   0.05056   0.05056   1.26883
   D32       -0.75659  -0.00056   0.00000   0.03950   0.03949  -0.71710
   D33       -2.74804   0.00050   0.00000   0.04544   0.04544  -2.70259
   D34       -1.68463  -0.00004   0.00000  -0.00253  -0.00253  -1.68716
         Item               Value     Threshold  Converged?
 Maximum Force            0.005440     0.000450     NO 
 RMS     Force            0.001253     0.000300     NO 
 Maximum Displacement     0.093326     0.001800     NO 
 RMS     Displacement     0.025545     0.001200     NO 
 Predicted change in Energy=-2.266381D-04
 GradGradGradGradGradGradGradGradGradGradGradGradGradGradGradGradGradGrad

                          Input orientation:                          
 ---------------------------------------------------------------------
 Center     Atomic      Atomic             Coordinates (Angstroms)
 Number     Number       Type             X           Y           Z
 ---------------------------------------------------------------------
      1          6           0        2.228219   -0.734235   -0.202776
      2          6           0        1.168509   -1.409684    0.394893
      3          6           0       -0.031332   -0.760553    0.651828
      4          6           0       -0.184798    0.589591    0.322018
      5          6           0        0.879383    1.266513   -0.277239
      6          6           0        2.073423    0.605983   -0.538477
      7          1           0        3.159844   -1.244567   -0.402643
      8          1           0        1.273556   -2.452996    0.661358
      9          1           0       -0.860214   -1.296497    1.095012
     10          1           0        0.770071    2.311713   -0.539772
     11          1           0        2.887736    1.146057   -1.002794
     12          7           0       -1.424346    1.232197    0.531040
     13          1           0       -1.911343    0.920442    1.359601
     14          1           0       -1.363576    2.239505    0.521489
     15          8           0       -3.187174   -0.778261   -0.718786
     16          1           0       -2.630735   -1.300804   -1.303025
     17          1           0       -2.680094    0.031638   -0.543882
 ---------------------------------------------------------------------
                    Distance matrix (angstroms):
                    1          2          3          4          5
     1  C    0.000000
     2  C    1.391554   0.000000
     3  C    2.415907   1.388166   0.000000
     4  C    2.801887   2.415337   1.398290   0.000000
     5  C    2.414104   2.774416   2.408644   1.396358   0.000000
     6  C    1.390267   2.398533   2.777451   2.416667   1.389343
     7  H    1.080884   2.151451   3.395553   3.882769   3.394370
     8  H    2.147613   1.081914   2.137097   3.391059   3.856304
     9  H    3.396882   2.149115   1.081986   2.147332   3.387963
    10  H    3.393753   3.857609   3.391308   2.149455   1.083197
    11  H    2.147206   3.382467   3.859261   3.391939   2.138790
    12  N    4.212667   3.704182   2.434364   1.411776   2.441651
    13  H    4.723870   3.980658   2.619376   2.041323   3.253793
    14  H    4.718970   4.443429   3.285150   2.037529   2.572070
    15  O    5.440100   4.539929   3.440674   3.459560   4.573069
    16  H    5.014078   4.162815   3.297001   3.492415   4.468141
    17  H    4.979402   4.215501   3.012180   2.699554   3.777021
                    6          7          8          9         10
     6  C    0.000000
     7  H    2.150185   0.000000
     8  H    3.381825   2.480016   0.000000
     9  H    3.859267   4.290283   2.465465   0.000000
    10  H    2.146682   4.286834   4.939499   4.283634   0.000000
    11  H    1.081840   2.479780   4.281140   4.941052   2.461229
    12  N    3.710848   5.293479   4.569059   2.651528   2.669730
    13  H    4.424923   5.788757   4.691610   2.467732   3.568366
    14  H    3.950301   5.783952   5.384570   3.617405   2.384101
    15  O    5.442658   6.371972   4.960610   2.995526   5.023920
    16  H    5.133173   5.860431   4.519937   2.980829   5.019791
    17  H    4.788091   5.979424   4.822588   2.786015   4.135503
                   11         12         13         14         15
    11  H    0.000000
    12  N    4.577567   0.000000
    13  H    5.353782   1.010382   0.000000
    14  H    4.646797   1.009186   1.656023   0.000000
    15  O    6.378730   2.951536   2.972042   3.737741   0.000000
    16  H    6.044071   3.351904   3.541333   4.179513   0.961255
    17  H    5.696777   2.042963   2.237006   2.782608   0.971421
                   16         17
    16  H    0.000000
    17  H    1.534320   0.000000
 Stoichiometry    C6H9NO
 Framework group  C1[X(C6H9NO)]
 Deg. of freedom    45
 Full point group                 C1      NOp   1
 Largest Abelian subgroup         C1      NOp   1
 Largest concise Abelian subgroup C1      NOp   1
                         Standard orientation:                         
 ---------------------------------------------------------------------
 Center     Atomic      Atomic             Coordinates (Angstroms)
 Number     Number       Type             X           Y           Z
 ---------------------------------------------------------------------
      1          6           0        2.231218   -0.722683   -0.219256
      2          6           0        1.179727   -1.405600    0.384409
      3          6           0       -0.021892   -0.763944    0.651605
      4          6           0       -0.185420    0.586092    0.326217
      5          6           0        0.870523    1.270513   -0.279065
      6          6           0        2.066375    0.617434   -0.550549
      7          1           0        3.164257   -1.227210   -0.427105
      8          1           0        1.292634   -2.448934    0.647554
      9          1           0       -0.844479   -1.305672    1.099461
     10          1           0        0.753369    2.315700   -0.538243
     11          1           0        2.874217    1.163260   -1.019422
     12          7           0       -1.427055    1.221112    0.545772
     13          1           0       -1.906253    0.904593    1.377070
     14          1           0       -1.372084    2.228771    0.538246
     15          8           0       -3.187434   -0.796357   -0.696182
     16          1           0       -2.632281   -1.314311   -1.285708
     17          1           0       -2.683713    0.015999   -0.522970
 ---------------------------------------------------------------------
 Rotational constants (GHZ):      3.3212838      1.2573875      1.0332443
 Standard basis: Aug-CC-pVTZ (5D, 7F)
 There are   665 symmetry adapted cartesian basis functions of A   symmetry.
 There are   575 symmetry adapted basis functions of A   symmetry.
   575 basis functions,   819 primitive gaussians,   665 cartesian basis functions
    30 alpha electrons       30 beta electrons
       nuclear repulsion energy       347.6218151872 Hartrees.
 NAtoms=   17 NActive=   17 NUniq=   17 SFac= 1.00D+00 NAtFMM=   60 NAOKFM=F Big=F
 Integral buffers will be    131072 words long.
 Raffenetti 2 integral format.
 Two-electron integral symmetry is turned on.
 Nuclear repulsion after empirical dispersion term =      347.6112500901 Hartrees.
 One-electron integrals computed using PRISM.
 NBasis=   575 RedAO= T EigKep=  1.18D-06  NBF=   575
 NBsUse=   573 1.00D-06 EigRej=  8.23D-07 NBFU=   573
 Initial guess from the checkpoint file:  "62-53-3.chk"
 B after Tr=     0.000000    0.000000    0.000000
         Rot=    0.999991   -0.002955   -0.002474   -0.001654 Ang=  -0.48 deg.
 ExpMin= 2.53D-02 ExpMax= 1.53D+04 ExpMxC= 5.22D+02 IAcc=3 IRadAn=         5 AccDes= 0.00D+00
 Harris functional with IExCor=  402 and IRadAn=       5 diagonalized for initial guess.
 HarFok:  IExCor=  402 AccDes= 0.00D+00 IRadAn=         5 IDoV= 1 UseB2=F ITyADJ=14
 ICtDFT=  3500011 ScaDFX=  1.000000  1.000000  1.000000  1.000000
 FoFCou: FMM=F IPFlag=           0 FMFlag=      100000 FMFlg1=           0
         NFxFlg=           0 DoJE=T BraDBF=F KetDBF=T FulRan=T
         wScrn=  0.000000 ICntrl=     500 IOpCl=  0 I1Cent=   200000004 NGrid=           0
         NMat0=    1 NMatS0=      1 NMatT0=    0 NMatD0=    1 NMtDS0=    0 NMtDT0=    0
 Petite list used in FoFCou.
 Requested convergence on RMS density matrix=1.00D-08 within 128 cycles.
 Requested convergence on MAX density matrix=1.00D-06.
 Requested convergence on             energy=1.00D-06.
 No special actions if energy rises.
 SCF Done:  E(RB3LYP) =  -364.199823362     A.U. after    9 cycles
            NFock=  9  Conv=0.60D-08     -V/T= 2.0063
 Calling FoFJK, ICntrl=      2127 FMM=F ISym2X=0 I1Cent= 0 IOpClX= 0 NMat=1 NMatS=1 NMatT=0.
 ***** Axes restored to original set *****
 -------------------------------------------------------------------
 Center     Atomic                   Forces (Hartrees/Bohr)
 Number     Number              X              Y              Z
 -------------------------------------------------------------------
      1        6          -0.000020155   -0.000063939    0.000091659
      2        6          -0.000016191    0.000089494   -0.000112749
      3        6          -0.000021270    0.000717197   -0.000053586
      4        6          -0.000104128   -0.000115853    0.000592305
      5        6          -0.000215046   -0.000121102   -0.000328554
      6        6          -0.000280721    0.000034001    0.000114631
      7        1          -0.000034992    0.000006530   -0.000014387
      8        1          -0.000055942    0.000022019   -0.000028312
      9        1           0.000035106   -0.000106944    0.000195998
     10        1           0.000043681   -0.000024141   -0.000037507
     11        1          -0.000039427    0.000022224    0.000013700
     12        7           0.001484342   -0.000373382    0.000584799
     13        1           0.000263902   -0.000103412   -0.000016835
     14        1          -0.000716206    0.000032905   -0.000459908
     15        8          -0.000370174    0.000561086   -0.000335717
     16        1          -0.000058260    0.000307874    0.000125045
     17        1           0.000105481   -0.000884559   -0.000330584
 -------------------------------------------------------------------
 Cartesian Forces:  Max     0.001484342 RMS     0.000352131

 GradGradGradGradGradGradGradGradGradGradGradGradGradGradGradGradGradGrad
 Berny optimization.
 Using GEDIIS/GDIIS optimizer.
 FormGI is forming the generalized inverse of G from B-inverse, IUseBI=4.
 Internal  Forces:  Max     0.001316311 RMS     0.000308795
 Search for a local minimum.
 Step number   2 out of a maximum of   87
 All quantities printed in internal units (Hartrees-Bohrs-Radians)
 Mixed Optimization -- En-DIIS/RFO-DIIS
 Update second derivatives using D2CorX and points    1    2
 DE= -2.58D-04 DEPred=-2.27D-04 R= 1.14D+00
 TightC=F SS=  1.41D+00  RLast= 1.08D-01 DXNew= 5.0454D-01 3.2347D-01
 Trust test= 1.14D+00 RLast= 1.08D-01 DXMaxT set to 3.23D-01
 ITU=  1  0
 Use linear search instead of GDIIS.
     Eigenvalues ---    0.00223   0.01365   0.01482   0.01955   0.02157
     Eigenvalues ---    0.02197   0.02210   0.02224   0.02230   0.02233
     Eigenvalues ---    0.02240   0.02241   0.03861   0.05239   0.07833
     Eigenvalues ---    0.10672   0.12757   0.15816   0.15998   0.16000
     Eigenvalues ---    0.16000   0.16000   0.16000   0.16665   0.21995
     Eigenvalues ---    0.22000   0.23584   0.24262   0.25045   0.35901
     Eigenvalues ---    0.35996   0.36045   0.36115   0.36355   0.42824
     Eigenvalues ---    0.42863   0.45456   0.46400   0.46525   0.46776
     Eigenvalues ---    0.47450   0.47600   0.49425   0.55358   0.61614
 RFO step:  Lambda=-8.84465917D-05 EMin= 2.22609101D-03
 Quartic linear search produced a step of  0.18270.
 Iteration  1 RMS(Cart)=  0.02051441 RMS(Int)=  0.00016700
 Iteration  2 RMS(Cart)=  0.00033846 RMS(Int)=  0.00000680
 Iteration  3 RMS(Cart)=  0.00000008 RMS(Int)=  0.00000680
 Variable       Old X    -DE/DX   Delta X   Delta X   Delta X     New X
                                 (Linear)    (Quad)   (Total)
    R1        2.62966  -0.00016   0.00040  -0.00036   0.00004   2.62970
    R2        2.62722  -0.00003   0.00044  -0.00001   0.00043   2.62765
    R3        2.04258  -0.00003   0.00080  -0.00006   0.00073   2.04331
    R4        2.62325  -0.00015   0.00039  -0.00037   0.00003   2.62328
    R5        2.04452  -0.00003   0.00080  -0.00007   0.00072   2.04524
    R6        2.64239  -0.00061   0.00093  -0.00154  -0.00061   2.64178
    R7        2.04466   0.00011   0.00073   0.00039   0.00112   2.04578
    R8        2.63873  -0.00026   0.00094  -0.00065   0.00030   2.63903
    R9        2.66787  -0.00090   0.00172  -0.00230  -0.00058   2.66729
   R10        2.62548  -0.00030   0.00039  -0.00071  -0.00032   2.62515
   R11        2.04694  -0.00002   0.00076  -0.00003   0.00074   2.04768
   R12        2.04438  -0.00003   0.00079  -0.00005   0.00075   2.04513
   R13        1.90935  -0.00011   0.00086  -0.00024   0.00063   1.90997
   R14        1.90708  -0.00001   0.00079   0.00002   0.00081   1.90789
   R15        3.86064   0.00050   0.00560   0.01444   0.02004   3.88068
   R16        1.81651  -0.00027   0.00125  -0.00052   0.00073   1.81724
   R17        1.83572  -0.00047   0.00183  -0.00093   0.00090   1.83662
    A1        2.07926  -0.00008  -0.00010  -0.00029  -0.00039   2.07887
    A2        2.10205   0.00004   0.00004   0.00013   0.00017   2.10222
    A3        2.10187   0.00004   0.00006   0.00016   0.00022   2.10209
    A4        2.10684  -0.00002   0.00006  -0.00003   0.00003   2.10687
    A5        2.09430   0.00005  -0.00006   0.00033   0.00027   2.09457
    A6        2.08205  -0.00003   0.00000  -0.00030  -0.00030   2.08174
    A7        2.09754  -0.00002   0.00033  -0.00017   0.00016   2.09770
    A8        2.10172  -0.00011  -0.00070  -0.00080  -0.00151   2.10021
    A9        2.08382   0.00013   0.00041   0.00099   0.00139   2.08521
   A10        2.07792   0.00021  -0.00066   0.00081   0.00016   2.07808
   A11        2.09549  -0.00006   0.00087  -0.00027   0.00060   2.09608
   A12        2.10833  -0.00016  -0.00018  -0.00079  -0.00097   2.10736
   A13        2.10041  -0.00011   0.00028  -0.00061  -0.00033   2.10008
   A14        2.08849   0.00011   0.00027   0.00072   0.00099   2.08948
   A15        2.09429   0.00000  -0.00055  -0.00011  -0.00066   2.09363
   A16        2.10435   0.00003   0.00009   0.00029   0.00038   2.10474
   A17        2.09563   0.00003  -0.00008   0.00016   0.00008   2.09572
   A18        2.08318  -0.00006  -0.00001  -0.00045  -0.00046   2.08273
   A19        1.98686  -0.00027   0.00183  -0.00086   0.00094   1.98780
   A20        1.98237   0.00036   0.00013   0.00204   0.00215   1.98452
   A21        1.76634   0.00065   0.00119   0.00418   0.00536   1.77169
   A22        1.92278   0.00006  -0.00063   0.00179   0.00116   1.92395
   A23        1.52467   0.00034   0.00064   0.00569   0.00631   1.53098
   A24        2.23775  -0.00123  -0.00265  -0.01246  -0.01510   2.22265
   A25        1.83432  -0.00034   0.00291  -0.00236   0.00055   1.83486
   A26        2.70344   0.00132   0.00124   0.00627   0.00751   2.71095
    D1        0.00310  -0.00003   0.00047  -0.00143  -0.00096   0.00214
    D2        3.14093  -0.00001   0.00063  -0.00053   0.00010   3.14103
    D3       -3.13942  -0.00001   0.00016  -0.00044  -0.00027  -3.13970
    D4       -0.00160   0.00001   0.00033   0.00046   0.00079  -0.00081
    D5        0.00432  -0.00001  -0.00019  -0.00059  -0.00077   0.00355
    D6        3.14050   0.00001  -0.00022   0.00075   0.00053   3.14103
    D7       -3.13633  -0.00003   0.00012  -0.00158  -0.00146  -3.13780
    D8       -0.00016  -0.00001   0.00009  -0.00025  -0.00016  -0.00032
    D9       -0.01009   0.00004  -0.00019   0.00204   0.00185  -0.00824
   D10        3.11590   0.00007   0.00178   0.00356   0.00533   3.12124
   D11        3.13525   0.00002  -0.00036   0.00115   0.00079   3.13604
   D12       -0.02195   0.00005   0.00161   0.00267   0.00428  -0.01767
   D13        0.00953  -0.00001  -0.00037  -0.00061  -0.00098   0.00855
   D14        3.09379  -0.00010   0.00033  -0.00548  -0.00515   3.08864
   D15       -3.11662  -0.00004  -0.00230  -0.00210  -0.00441  -3.12103
   D16       -0.03236  -0.00012  -0.00160  -0.00698  -0.00859  -0.04094
   D17       -0.00217  -0.00002   0.00065  -0.00139  -0.00074  -0.00291
   D18        3.13814  -0.00003   0.00014  -0.00169  -0.00155   3.13658
   D19       -3.08600   0.00006  -0.00009   0.00350   0.00340  -3.08260
   D20        0.05430   0.00005  -0.00060   0.00320   0.00260   0.05690
   D21        0.62733  -0.00005  -0.00390  -0.01390  -0.01780   0.60954
   D22        2.84681   0.00011  -0.00308  -0.01034  -0.01341   2.83340
   D23       -0.97960  -0.00067  -0.00552  -0.02193  -0.02746  -1.00706
   D24       -2.57260  -0.00013  -0.00321  -0.01880  -0.02200  -2.59460
   D25       -0.35312   0.00004  -0.00238  -0.01525  -0.01762  -0.37074
   D26        2.10365  -0.00075  -0.00483  -0.02683  -0.03167   2.07199
   D27       -0.00477   0.00004  -0.00037   0.00200   0.00163  -0.00314
   D28       -3.14099   0.00001  -0.00034   0.00068   0.00034  -3.14065
   D29        3.13811   0.00004   0.00014   0.00231   0.00244   3.14055
   D30        0.00190   0.00002   0.00017   0.00098   0.00115   0.00304
   D31        1.26883  -0.00006   0.00924   0.03277   0.04201   1.31084
   D32       -0.71710   0.00013   0.00722   0.03238   0.03956  -0.67753
   D33       -2.70259   0.00012   0.00830   0.02896   0.03728  -2.66531
   D34       -1.68716  -0.00012  -0.00046  -0.00916  -0.00963  -1.69678
         Item               Value     Threshold  Converged?
 Maximum Force            0.001316     0.000450     NO 
 RMS     Force            0.000309     0.000300     NO 
 Maximum Displacement     0.070321     0.001800     NO 
 RMS     Displacement     0.020781     0.001200     NO 
 Predicted change in Energy=-5.038933D-05
 GradGradGradGradGradGradGradGradGradGradGradGradGradGradGradGradGradGrad

                          Input orientation:                          
 ---------------------------------------------------------------------
 Center     Atomic      Atomic             Coordinates (Angstroms)
 Number     Number       Type             X           Y           Z
 ---------------------------------------------------------------------
      1          6           0        2.232718   -0.733753   -0.202623
      2          6           0        1.180088   -1.408557    0.408193
      3          6           0       -0.019489   -0.761365    0.671259
      4          6           0       -0.180715    0.585330    0.332538
      5          6           0        0.875855    1.261790   -0.280906
      6          6           0        2.070182    0.603776   -0.546236
      7          1           0        3.164622   -1.242564   -0.407112
      8          1           0        1.290586   -2.449974    0.681337
      9          1           0       -0.840850   -1.297356    1.129578
     10          1           0        0.760733    2.304526   -0.552213
     11          1           0        2.878767    1.143790   -1.021428
     12          7           0       -1.421759    1.224196    0.542068
     13          1           0       -1.912319    0.905360    1.366225
     14          1           0       -1.365256    2.232217    0.537447
     15          8           0       -3.209051   -0.753078   -0.755998
     16          1           0       -2.653540   -1.290344   -1.328280
     17          1           0       -2.683444    0.042050   -0.566005
 ---------------------------------------------------------------------
                    Distance matrix (angstroms):
                    1          2          3          4          5
     1  C    0.000000
     2  C    1.391577   0.000000
     3  C    2.415961   1.388181   0.000000
     4  C    2.801970   2.415180   1.397968   0.000000
     5  C    2.414415   2.774557   2.408613   1.396514   0.000000
     6  C    1.390494   2.398476   2.777162   2.416427   1.389172
     7  H    1.081272   2.151895   3.396026   3.883240   3.395021
     8  H    2.148118   1.082297   2.137241   3.391085   3.856826
     9  H    3.396944   2.148710   1.082579   2.148384   3.389066
    10  H    3.394126   3.858137   3.391949   2.150522   1.083586
    11  H    2.147787   3.382868   3.859364   3.391980   2.138680
    12  N    4.212283   3.703906   2.434236   1.411468   2.440846
    13  H    4.725390   3.979324   2.616058   2.041906   3.257913
    14  H    4.721239   4.444178   3.284894   2.038961   2.575656
    15  O    5.469867   4.587977   3.494344   3.485264   4.579504
    16  H    5.045038   4.210227   3.349059   3.520132   4.479621
    17  H    4.990246   4.240307   3.045152   2.714071   3.773281
                    6          7          8          9         10
     6  C    0.000000
     7  H    2.150843   0.000000
     8  H    3.382321   2.480841   0.000000
     9  H    3.859632   4.290480   2.464238   0.000000
    10  H    2.146449   4.287374   4.940411   4.285678   0.000000
    11  H    1.082235   2.480681   4.282156   4.941818   2.460394
    12  N    3.709848   5.293461   4.568997   2.653459   2.669800
    13  H    4.428179   5.790823   4.688917   2.460895   3.575371
    14  H    3.953279   5.786716   5.384897   3.617113   2.390066
    15  O    5.454846   6.401954   5.019175   3.075713   5.014943
    16  H    5.149061   5.890826   4.575962   3.054006   5.018229
    17  H    4.786740   5.989603   4.853757   2.839746   4.120842
                   11         12         13         14         15
    11  H    0.000000
    12  N    4.576626   0.000000
    13  H    5.358380   1.010713   0.000000
    14  H    4.650429   1.009614   1.657318   0.000000
    15  O    6.382012   2.964625   2.989275   3.739595   0.000000
    16  H    6.051907   3.367253   3.553995   4.189158   0.961641
    17  H    5.688534   2.053568   2.252432   2.784252   0.971900
                   16         17
    16  H    0.000000
    17  H    1.535327   0.000000
 Stoichiometry    C6H9NO
 Framework group  C1[X(C6H9NO)]
 Deg. of freedom    45
 Full point group                 C1      NOp   1
 Largest Abelian subgroup         C1      NOp   1
 Largest concise Abelian subgroup C1      NOp   1
                         Standard orientation:                         
 ---------------------------------------------------------------------
 Center     Atomic      Atomic             Coordinates (Angstroms)
 Number     Number       Type             X           Y           Z
 ---------------------------------------------------------------------
      1          6           0        2.238403   -0.710685   -0.234420
      2          6           0        1.201519   -1.400541    0.386431
      3          6           0       -0.001518   -0.768198    0.669078
      4          6           0       -0.182101    0.578488    0.340234
      5          6           0        0.858670    1.270059   -0.283288
      6          6           0        2.056547    0.626849   -0.568191
      7          1           0        3.173060   -1.207959   -0.454156
      8          1           0        1.327136   -2.442171    0.652123
      9          1           0       -0.810733   -1.315831    1.135174
     10          1           0        0.728439    2.312946   -0.547074
     11          1           0        2.852719    1.178456   -1.050966
     12          7           0       -1.427220    1.202343    0.569853
     13          1           0       -1.903207    0.873486    1.398606
     14          1           0       -1.381915    2.210940    0.570250
     15          8           0       -3.209710   -0.787409   -0.715688
     16          1           0       -2.655975   -1.315269   -1.298350
     17          1           0       -2.690428    0.012441   -0.528136
 ---------------------------------------------------------------------
 Rotational constants (GHZ):      3.3085543      1.2433428      1.0304056
 Standard basis: Aug-CC-pVTZ (5D, 7F)
 There are   665 symmetry adapted cartesian basis functions of A   symmetry.
 There are   575 symmetry adapted basis functions of A   symmetry.
   575 basis functions,   819 primitive gaussians,   665 cartesian basis functions
    30 alpha electrons       30 beta electrons
       nuclear repulsion energy       347.1501285891 Hartrees.
 NAtoms=   17 NActive=   17 NUniq=   17 SFac= 1.00D+00 NAtFMM=   60 NAOKFM=F Big=F
 Integral buffers will be    131072 words long.
 Raffenetti 2 integral format.
 Two-electron integral symmetry is turned on.
 Nuclear repulsion after empirical dispersion term =      347.1396668278 Hartrees.
 One-electron integrals computed using PRISM.
 NBasis=   575 RedAO= T EigKep=  1.18D-06  NBF=   575
 NBsUse=   573 1.00D-06 EigRej=  8.30D-07 NBFU=   573
 Initial guess from the checkpoint file:  "62-53-3.chk"
 B after Tr=     0.000000    0.000000    0.000000
         Rot=    0.999992   -0.002961   -0.001907   -0.001785 Ang=  -0.45 deg.
 ExpMin= 2.53D-02 ExpMax= 1.53D+04 ExpMxC= 5.22D+02 IAcc=3 IRadAn=         5 AccDes= 0.00D+00
 Harris functional with IExCor=  402 and IRadAn=       5 diagonalized for initial guess.
 HarFok:  IExCor=  402 AccDes= 0.00D+00 IRadAn=         5 IDoV= 1 UseB2=F ITyADJ=14
 ICtDFT=  3500011 ScaDFX=  1.000000  1.000000  1.000000  1.000000
 FoFCou: FMM=F IPFlag=           0 FMFlag=      100000 FMFlg1=           0
         NFxFlg=           0 DoJE=T BraDBF=F KetDBF=T FulRan=T
         wScrn=  0.000000 ICntrl=     500 IOpCl=  0 I1Cent=   200000004 NGrid=           0
         NMat0=    1 NMatS0=      1 NMatT0=    0 NMatD0=    1 NMtDS0=    0 NMtDT0=    0
 Petite list used in FoFCou.
 Requested convergence on RMS density matrix=1.00D-08 within 128 cycles.
 Requested convergence on MAX density matrix=1.00D-06.
 Requested convergence on             energy=1.00D-06.
 No special actions if energy rises.
 SCF Done:  E(RB3LYP) =  -364.199906073     A.U. after    9 cycles
            NFock=  9  Conv=0.61D-08     -V/T= 2.0063
 Calling FoFJK, ICntrl=      2127 FMM=F ISym2X=0 I1Cent= 0 IOpClX= 0 NMat=1 NMatS=1 NMatT=0.
 ***** Axes restored to original set *****
 -------------------------------------------------------------------
 Center     Atomic                   Forces (Hartrees/Bohr)
 Number     Number              X              Y              Z
 -------------------------------------------------------------------
      1        6           0.000072174   -0.000134398   -0.000012227
      2        6           0.000159175   -0.000135426   -0.000003263
      3        6          -0.000128685    0.000384799    0.000218419
      4        6          -0.000571895    0.000187661    0.000206309
      5        6          -0.000109977    0.000041184   -0.000304772
      6        6          -0.000004367    0.000042389    0.000003622
      7        1          -0.000267246    0.000146460    0.000051277
      8        1          -0.000044053    0.000276701   -0.000089211
      9        1           0.000146968    0.000100440   -0.000108196
     10        1          -0.000031838   -0.000296737    0.000090198
     11        1          -0.000206688   -0.000137487    0.000136670
     12        7           0.001257279   -0.000268467    0.000842344
     13        1           0.000416916    0.000058661   -0.000295728
     14        1          -0.000643143   -0.000391993   -0.000448266
     15        8           0.000300852    0.000849956   -0.000355041
     16        1          -0.000219911    0.000565515    0.000345292
     17        1          -0.000125562   -0.001289258   -0.000277426
 -------------------------------------------------------------------
 Cartesian Forces:  Max     0.001289258 RMS     0.000390381

 GradGradGradGradGradGradGradGradGradGradGradGradGradGradGradGradGradGrad
 Berny optimization.
 Using GEDIIS/GDIIS optimizer.
 FormGI is forming the generalized inverse of G from B-inverse, IUseBI=4.
 Internal  Forces:  Max     0.001199825 RMS     0.000321563
 Search for a local minimum.
 Step number   3 out of a maximum of   87
 All quantities printed in internal units (Hartrees-Bohrs-Radians)
 Mixed Optimization -- En-DIIS/RFO-DIIS
 Swapping is turned off.
 Update second derivatives using D2CorX and points    1    2    3
 DE= -8.27D-05 DEPred=-5.04D-05 R= 1.64D+00
 TightC=F SS=  1.41D+00  RLast= 9.40D-02 DXNew= 5.4401D-01 2.8215D-01
 Trust test= 1.64D+00 RLast= 9.40D-02 DXMaxT set to 3.23D-01
 ITU=  1  1  0
     Eigenvalues ---    0.00183   0.00740   0.01486   0.01970   0.02182
     Eigenvalues ---    0.02210   0.02217   0.02224   0.02229   0.02239
     Eigenvalues ---    0.02239   0.02250   0.03718   0.05097   0.07594
     Eigenvalues ---    0.10092   0.11863   0.15935   0.15999   0.16000
     Eigenvalues ---    0.16000   0.16000   0.16075   0.16804   0.21982
     Eigenvalues ---    0.22005   0.23340   0.23656   0.25072   0.35908
     Eigenvalues ---    0.36023   0.36046   0.36130   0.37207   0.42834
     Eigenvalues ---    0.42927   0.45342   0.46406   0.46749   0.46927
     Eigenvalues ---    0.47444   0.47756   0.49410   0.55491   0.71109
 En-DIIS/RFO-DIIS IScMMF=        0 using points:     3    2
 RFO step:  Lambda=-2.28304089D-05.
 DidBck=F Rises=F RFO-DIIS coefs:    2.76961   -1.76961
 Iteration  1 RMS(Cart)=  0.04791998 RMS(Int)=  0.00080140
 Iteration  2 RMS(Cart)=  0.00174169 RMS(Int)=  0.00005215
 Iteration  3 RMS(Cart)=  0.00000170 RMS(Int)=  0.00005212
 Iteration  4 RMS(Cart)=  0.00000000 RMS(Int)=  0.00005212
 Variable       Old X    -DE/DX   Delta X   Delta X   Delta X     New X
                                 (Linear)    (Quad)   (Total)
    R1        2.62970  -0.00026   0.00008  -0.00056  -0.00048   2.62922
    R2        2.62765  -0.00015   0.00076  -0.00029   0.00047   2.62812
    R3        2.04331  -0.00031   0.00130  -0.00131  -0.00002   2.04329
    R4        2.62328  -0.00008   0.00005   0.00037   0.00042   2.62370
    R5        2.04524  -0.00029   0.00128  -0.00120   0.00008   2.04533
    R6        2.64178  -0.00046  -0.00108   0.00005  -0.00103   2.64074
    R7        2.04578  -0.00021   0.00198  -0.00114   0.00084   2.04661
    R8        2.63903  -0.00031   0.00052  -0.00005   0.00047   2.63950
    R9        2.66729  -0.00112  -0.00103  -0.00215  -0.00318   2.66411
   R10        2.62515  -0.00021  -0.00057   0.00003  -0.00055   2.62461
   R11        2.04768  -0.00030   0.00130  -0.00137  -0.00007   2.04761
   R12        2.04513  -0.00028   0.00132  -0.00116   0.00016   2.04529
   R13        1.90997  -0.00046   0.00111  -0.00142  -0.00031   1.90966
   R14        1.90789  -0.00043   0.00143  -0.00157  -0.00014   1.90776
   R15        3.88068   0.00012   0.03546  -0.00285   0.03262   3.91330
   R16        1.81724  -0.00064   0.00129  -0.00111   0.00018   1.81742
   R17        1.83662  -0.00120   0.00160  -0.00280  -0.00120   1.83543
    A1        2.07887  -0.00003  -0.00068   0.00002  -0.00067   2.07820
    A2        2.10222   0.00002   0.00030   0.00007   0.00037   2.10259
    A3        2.10209   0.00001   0.00039  -0.00009   0.00030   2.10239
    A4        2.10687  -0.00004   0.00005  -0.00025  -0.00020   2.10667
    A5        2.09457   0.00003   0.00049  -0.00014   0.00035   2.09492
    A6        2.08174   0.00001  -0.00054   0.00039  -0.00015   2.08159
    A7        2.09770   0.00000   0.00028   0.00051   0.00079   2.09849
    A8        2.10021   0.00000  -0.00267   0.00021  -0.00247   2.09774
    A9        2.08521  -0.00001   0.00246  -0.00074   0.00171   2.08692
   A10        2.07808   0.00010   0.00028  -0.00067  -0.00039   2.07769
   A11        2.09608  -0.00013   0.00105  -0.00007   0.00098   2.09706
   A12        2.10736   0.00002  -0.00172   0.00093  -0.00079   2.10657
   A13        2.10008  -0.00006  -0.00058   0.00023  -0.00035   2.09972
   A14        2.08948  -0.00004   0.00175  -0.00125   0.00050   2.08998
   A15        2.09363   0.00010  -0.00117   0.00102  -0.00015   2.09348
   A16        2.10474   0.00002   0.00068   0.00016   0.00083   2.10557
   A17        2.09572  -0.00001   0.00014  -0.00043  -0.00029   2.09543
   A18        2.08273  -0.00001  -0.00081   0.00027  -0.00054   2.08219
[...]
         Item               Value     Threshold  Converged?
 Maximum Force            0.000009     0.000450     YES
 RMS     Force            0.000002     0.000300     YES
 Maximum Displacement     0.036897     0.001800     NO 
 RMS     Displacement     0.006996     0.001200     NO 
 Predicted change in Energy=-1.553084D-06
 GradGradGradGradGradGradGradGradGradGradGradGradGradGradGradGradGradGrad

 1\1\GINC-NODE104\Freq\RB3LYP\Aug-CC-pVTZ\C6H9N1O1\KAESER\01-Oct-2021\0
 \\#N Geom=AllCheck Guess=TCheck SCRF=Check GenChk RB3LYP/Aug-CC-pVTZ F
 req\\Title Card Required\\0,1\C,2.2884460488,-0.7233741219,-0.17722452
 64\C,1.4038847464,-1.3785419975,0.6727783986\C,0.1756128928,-0.8132334
 983,0.9883105683\C,-0.1862544714,0.4265342596,0.4565744749\C,0.7004058
 695,1.0816423075,-0.4008979894\C,1.9265091358,0.5088710906,-0.71102433
 82\H,3.2441137348,-1.1659858012,-0.4198173343\H,1.6693726074,-2.338116
 213,1.0958660546\H,-0.5091172058,-1.3344325315,1.6456844806\H,0.424892
 1854,2.0381715183,-0.8273434501\H,2.6023155862,1.0311953558,-1.3748772
 373\N,-1.4578314168,0.9721369611,0.7198536652\H,-1.8651358981,0.673932
 1426,1.593906382\H,-1.5048791126,1.9764665843,0.6314219724\O,-3.298619
 7766,-0.1253200839,-1.3323873941\H,-2.7627902128,-0.7059335558,-1.8793
 281163\H,-2.6837957132,0.2420315833,-0.6736516106\\Version=ES64L-G09Re
 vD.01\State=1-A\HF=-364.2004892\RMSD=1.920e-09\RMSF=4.294e-05\ZeroPoin
 t=0.1412301\Thermal=0.1504809\Dipole=0.8367799,0.2800573,0.6629523\Dip
 oleDeriv=-0.0901492,-0.0539171,-0.0245947,-0.046076,-0.1749482,0.04158
 54,-0.0145648,0.038818,-0.1709029,0.1368792,-0.0081892,-0.1198869,-0.0
 78732,0.071999,-0.0763116,-0.0838542,-0.1078115,-0.0123575,-0.2217111,
 0.0354657,-0.0069913,0.3154927,-0.1403667,-0.1330001,-0.1339831,-0.021
 4323,-0.0819796,1.1859904,-0.4383943,-0.1557003,-0.5142093,0.1954514,0
 .0801644,-0.2518217,0.1059225,0.0468291,-0.3306194,0.1145416,-0.011391
 ,-0.1195015,0.0052901,-0.0418228,0.1752377,-0.1700783,-0.1176189,0.116
 2838,-0.1071897,-0.0493486,-0.0439053,0.1062781,-0.1119467,-0.0940489,
 -0.0780575,-0.0254309,-0.0510284,0.0721783,0.0567325,0.0728691,0.05052
 88,0.0151229,0.0575529,0.0149399,0.1017689,0.0654771,0.0458527,0.00444
 81,0.0522692,-0.0494459,0.0785759,0.0029656,0.0787388,0.0783311,-0.009
 4517,-0.0295448,0.0984836,-0.0274729,0.0517843,0.0608413,0.093529,0.06
 13009,0.0501699,0.0517871,0.0725575,0.0063413,0.0665725,-0.0486176,0.0
 716584,0.0070006,0.0726894,0.0878908,0.0103989,-0.0360839,0.080472,-0.
 0395989,0.0411036,0.0700384,0.0859941,0.068997,0.0424635,-1.412718,0.3
 333548,-0.0279668,0.1624744,-0.2769993,-0.1723429,-0.2643214,-0.109289
 7,-0.342876,0.2767882,0.0273176,0.0012741,0.1004,0.1269826,0.0441294,0
 .1085186,0.0151984,0.1306781,0.2296107,-0.0632423,0.0524419,0.0178782,
 0.1102226,0.0066752,0.1530075,-0.0210068,0.191299,-0.5941734,-0.118780
 2,-0.155689,-0.2032362,-0.5552236,-0.031165,-0.2651101,-0.0008362,-0.6
 826994,0.1766855,0.0804884,0.0662916,0.0825211,0.236175,-0.0266882,0.0
 713929,-0.0263726,0.2705249,0.4599502,0.073585,0.1850836,0.2022548,0.2
 497857,0.1244859,0.3525055,0.0782803,0.43391\Polar=107.9889813,-11.767
 5947,89.8207608,-11.2417571,-10.9116196,75.2464253\PG=C01 [X(C6H9N1O1)
 ]\NImag=0\\0.63331057,-0.13293471,0.55309446,-0.18640030,-0.17824419,0
 .33344970,-0.19778311,-0.02263283,0.08303538,0.57419528,-0.07250667,-0
 .15868796,0.09326480,-0.11508884,0.60834761,0.11241984,0.06679086,-0.1
 6322320,-0.16071347,-0.21421803,0.34972703,-0.04043349,-0.03094760,0.0
 4432499,-0.28066272,0.11223795,0.04962539,0.61659711,0.00516855,0.0501
 6010,-0.02699436,0.06307936,-0.14791410,0.01817645,-0.08536797,0.55342
 718,0.02326751,-0.00710138,0.00094522,0.07751139,-0.00786642,-0.096565
 38,-0.20449992,-0.20383386,0.35285673,0.00094640,-0.01665397,0.0057254
 0,0.00122256,0.03344247,-0.01776781,-0.12504449,0.06867281,-0.01036925
 ,0.58018805,-0.01601426,-0.04628917,0.03231601,0.07136042,-0.01695014,
 -0.02632001,0.01373155,-0.25458759,0.10027337,-0.09392605,0.57496304,0
 .00660121,0.03206138,-0.02816015,-0.04088622,-0.00469250,0.02776562,0.
 02085207,0.07045405,-0.12147223,-0.16803778,-0.18757030,0.36713788,-0.
 00096096,0.06749354,-0.03430884,-0.04933802,-0.00485156,0.02638572,0.0
 4410917,-0.04395310,0.00668108,-0.17794107,-0.01476522,0.06642446,0.58
 780359,0.03131343,-0.01691333,-0.00125714,-0.00146745,-0.00190723,-0.0
 0086347,-0.01288573,-0.02081664,0.02406543,-0.06903338,-0.16300617,0.0
 9329183,-0.13110513,0.59727876,-0.01331678,-0.02112864,0.02843033,0.02
 518808,0.00079753,-0.01859684,-0.01150572,0.04039356,-0.00917062,0.098
 68508,0.06303590,-0.15999060,-0.16336381,-0.20970003,0.33789659,-0.130
 91448,0.03300123,0.01522128,0.04738695,-0.01293514,-0.01319759,-0.0283
 6457,0.02895408,-0.00396537,-0.04233331,-0.03602431,0.04466529,-0.2801
 3070,0.11289516,0.04799012,0.59994192,0.08298468,-0.27055329,0.0770525
 0,-0.05059179,-0.02592443,0.04667562,0.03157251,-0.03757244,0.00214626
 ,0.00310986,0.05567226,-0.03299131,0.06479678,-0.14876551,0.01861637,-
 0.07557937,0.56531326,-0.01400674,0.10345589,-0.11857211,0.00879113,0.
 02671025,-0.01230834,-0.00617842,0.00406118,-0.00385765,0.02319333,-0.
 01177993,-0.00121950,0.07730798,-0.00783101,-0.09648465,-0.19776929,-0
 .21033854,0.36770920,-0.27207255,0.10551375,0.06336293,-0.01348516,0.0
 0963662,0.00263249,0.00056275,-0.00171193,0.00420300,0.00029115,-0.000
 62687,-0.00012873,0.00254176,0.00216210,0.00087611,-0.00333755,0.00113
 834,0.00229275,0.28656564,0.10551877,-0.10031455,-0.01636101,-0.014811
 84,0.00984011,0.00334607,-0.00095773,0.00052212,0.00411611,-0.00059809
 ,-0.00102621,0.00058420,0.00141883,-0.00280130,0.00480740,0.02555967,-
 0.00713905,-0.00793276,-0.11483687,0.10136652,0.06336021,-0.01632868,-
 0.05753560,0.01698449,-0.00949069,-0.00110900,0.00376258,0.00450349,0.
 00202692,-0.00009459,0.00057453,-0.00087253,0.00132820,0.00442116,0.00
 336362,-0.01206768,0.00487931,0.00573764,-0.07036407,0.01522296,0.0526
 6001,0.00960659,-0.01846597,0.00788200,-0.07260266,0.06370943,-0.01921
 320,-0.00274609,0.02550669,-0.01164567,-0.00311887,0.00273346,0.003922
 81,-0.00114435,-0.00033701,0.00022080,-0.00098821,-0.00091556,0.004772
 19,-0.00008351,-0.00050818,-0.00176780,0.07132614,0.00562524,-0.008959
 70,0.00463958,0.06401317,-0.27137966,0.10307751,0.00159278,-0.00770307
 ,0.00581305,0.00314557,0.00276267,0.00122141,-0.00040365,0.00035834,-0
 .00064334,-0.00152702,0.00168634,0.00396559,-0.00125469,-0.00026488,-0
 .00154327,-0.07093364,0.28522437,-0.00626706,0.01732219,-0.00285901,-0
 .01946802,0.10323272,-0.08845934,0.00250832,-0.00685176,0.00634949,0.0
 0393867,0.00142128,0.00476312,0.00020830,-0.00071277,-0.00078280,0.005
 13565,0.00363461,0.00222941,-0.00132513,-0.00193617,-0.00217527,0.0177
 6451,-0.11468125,0.08391978,-0.00251489,0.00473678,0.00226567,-0.01342
 481,-0.01565737,0.01739038,-0.16176453,-0.07792325,0.11183182,0.006576
 33,0.00517858,-0.00424612,0.00152731,0.00279480,0.00051189,-0.00045192
 ,0.00053958,-0.00057468,-0.00065599,-0.00066458,0.00097151,-0.00006863
 ,-0.00059678,-0.00178816,0.16938367,0.00392598,0.00121687,0.00140700,0
 .00875579,0.01007775,-0.00898028,-0.07781586,-0.11885347,0.08933244,-0
 .01939168,-0.00849463,0.01755957,0.00350741,-0.00319915,0.00342494,0.0
 0083678,-0.00086846,-0.00051734,0.00056764,0.00039098,-0.00029231,-0.0
 0124218,-0.00025139,-0.00168000,0.08243589,0.12118768,0.00288815,0.001
 00415,0.00516350,0.00339749,0.00387681,-0.00152467,0.11117773,0.089265
 49,-0.14358074,0.01008590,0.00480767,-0.00395422,0.00009522,0.00378432
 ,0.00351305,-0.00070974,-0.00041175,-0.00036470,0.00025205,0.00038220,
 0.00007157,-0.00149459,-0.00202835,-0.00233673,-0.12398586,-0.09898261
 ,0.14515036,-0.00331222,0.00261536,0.00397366,-0.00114267,-0.00025503,
 0.00025810,-0.00134006,-0.00100876,0.00426338,0.00793464,-0.01720378,0
 .00818552,-0.07178863,0.06442191,-0.01828275,-0.00261664,0.02564717,-0
 .01257919,-0.00018594,0.00130882,-0.00043048,-0.00008337,-0.00013436,-
 0.00036045,0.00035518,-0.00094830,0.00039558,0.07155511,0.00355573,0.0
 0261186,0.00092488,-0.00050266,0.00031236,-0.00050280,-0.00171808,0.00
 165676,0.00335331,0.00727749,-0.01081375,0.00498728,0.06376210,-0.2650
 7504,0.10426815,0.00156283,-0.00821528,0.00559165,0.00007321,-0.000406
 38,0.00045199,-0.00014930,-0.00027555,-0.00030915,0.00024807,-0.000524
 57,0.00024864,-0.07194993,0.28012546,0.00352438,0.00127637,0.00456536,
 0.00044748,-0.00061944,-0.00085846,0.00469517,0.00299934,0.00151994,-0
 .00643388,0.01781765,-0.00295680,-0.01833713,0.10452737,-0.08704130,0.
 00188961,-0.00741853,0.00595364,0.00028582,-0.00022175,0.00039672,-0.0
 0035188,-0.00030573,-0.00055454,-0.00030650,0.00087764,-0.00024864,0.0
 1717785,-0.11543699,0.08365719,0.00908491,0.00481123,-0.00551443,0.001
 88904,0.00299931,0.00095354,-0.00049359,0.00063211,-0.00069097,-0.0021
 9273,0.00448113,0.00242381,-0.01313127,-0.01485642,0.01754992,-0.16332
 380,-0.07856528,0.11231517,-0.00010101,-0.00127377,-0.00132035,0.00028
 339,0.00032884,-0.00029747,-0.00015631,-0.00025129,-0.00025568,-0.0000
 9347,-0.00066335,-0.00180498,0.16926607,-0.01925878,-0.00808174,0.0172
 5896,0.00361208,-0.00311934,0.00407711,0.00067419,-0.00066622,-0.00060
 047,0.00430607,0.00118013,0.00159775,0.00914624,0.00975096,-0.00841891
 ,-0.07890660,-0.11933867,0.08937435,-0.00052769,-0.00024074,-0.0019511
 4,-0.00093957,-0.00054718,0.00085985,-0.00026313,-0.00015083,-0.000319
 54,-0.00125519,-0.00027029,-0.00169094,0.08307565,0.12110060,0.0086300
 1,0.00456594,-0.00326624,0.00059322,0.00441251,0.00415971,-0.00072369,
 -0.00051454,-0.00041008,0.00273082,0.00130761,0.00541374,0.00351977,0.
 00418297,-0.00072379,0.11254679,0.08925262,-0.15004191,-0.00175395,-0.
 00155345,-0.00218300,0.00044770,0.00019397,-0.00027103,-0.00024300,-0.
 00031725,-0.00060603,-0.00143675,-0.00205830,-0.00229451,-0.12447861,-
 0.09970632,0.15042902,-0.00638677,0.00386534,0.00063905,0.00487697,-0.
 00210068,0.00246580,-0.01795506,0.02027137,0.00035611,-0.21707836,0.05
 397745,0.03644724,-0.04042835,0.01013901,0.01732059,0.00663680,-0.0028
 6138,0.00146305,-0.00011783,-0.00014915,-0.00040733,-0.00005705,0.0001
 0978,-0.00012760,0.00071776,-0.00165105,-0.00182325,0.00077050,-0.0006
 5792,-0.00193537,-0.00071387,0.00015359,0.00020694,0.40406351,0.002060
 26,0.00265216,-0.00353778,-0.00471932,-0.00230925,0.00767835,0.0454963
 4,-0.01866203,-0.00673461,0.08300219,-0.12855131,0.01763102,-0.0162715
 7,0.01317284,0.00408234,0.00150205,-0.00498060,0.00394041,-0.00003219,
 0.00014869,-0.00038081,0.00136873,-0.00057849,-0.00023957,-0.00059842,
 0.00045950,-0.00236251,-0.00140597,0.00093440,-0.00057131,-0.00075870,
 0.00044558,0.00033055,-0.08430210,0.66458765,-0.00177072,-0.00285917,0
 .00121153,0.00503890,0.00331361,-0.00016839,-0.01490856,0.00946044,0.0
 0856330,0.07559087,0.00692660,-0.08104774,0.03104408,-0.01172818,-0.00
 092727,0.00119987,0.00767451,0.00080312,-0.00024512,-0.00042412,-0.000
 25156,-0.00049698,0.00039158,0.00025101,-0.00181077,-0.00078941,-0.000
 99146,-0.00153556,-0.00229265,-0.00146753,0.00105081,-0.00042637,-0.00
 012032,-0.24737200,-0.15881109,0.45049045,0.00071669,-0.00014096,-0.00
 015038,-0.00093424,-0.00028810,-0.00062323,0.00191374,-0.00252178,-0.0
 0059229,-0.02031905,-0.01228526,0.03196737,-0.00303954,0.00519242,0.00
 008387,-0.00088480,-0.00110241,0.00115965,0.00006319,0.00009605,0.0000
 1771,0.00009538,-0.00005224,0.00000713,0.00042310,0.00134616,0.0000685
 8,0.00013444,-0.00003656,-0.00010543,-0.00042865,0.00020211,0.00000988
 ,-0.08847658,-0.02446753,0.12941559,0.10979088,0.00044220,-0.00050483,
 -0.00006687,-0.00055801,-0.00042039,-0.00027038,0.00215328,0.00059421,
 -0.00154318,-0.00048191,0.00661273,-0.01413035,0.00316640,-0.00059252,
 -0.00011060,-0.00019323,0.00105418,0.00046800,-0.00003498,0.00001402,0
 .00013516,0.00003019,-0.00000581,0.00002985,0.00007095,-0.00098458,0.0
 0105641,0.00003120,0.00016066,-0.00035313,0.00011553,-0.00006332,-0.00
 006854,-0.02245655,-0.08976082,0.09841773,0.03362183,0.09159438,-0.000
 04453,-0.00070845,0.00046222,0.00087924,0.00027328,-0.00018005,-0.0018
 0517,0.00014071,0.00144634,-0.00497981,0.00023093,-0.00456489,0.000868
 51,-0.00044752,0.00073319,-0.00040778,0.00134566,0.00102115,-0.0000859
 3,-0.00011611,-0.00013291,-0.00005848,0.00000305,-0.00002082,0.0001773
 5,-0.00064464,-0.00014543,-0.00034097,-0.00025363,-0.00033875,-0.00002
 567,-0.00007696,-0.00006571,0.16416602,0.12122293,-0.33366887,-0.15624
 213,-0.11698042,0.33984765,0.00047980,-0.00014327,0.00001202,-0.000094
 95,0.00157124,-0.00075248,-0.00486175,0.00038644,0.00353290,-0.0047587
 3,0.03953526,-0.00639439,0.00139483,0.00073603,-0.00196804,-0.00051013
 ,-0.00030559,-0.00032321,0.00000900,-0.00008853,0.00003880,-0.00045203
 ,0.00011887,0.00006485,0.00005677,-0.00003191,-0.00015063,-0.00019418,
 -0.00083276,0.00127128,0.00007027,-0.00001958,-0.00002964,-0.04154098,
 0.00108213,0.02752503,0.00024640,-0.01626106,-0.00234906,0.05017516,-0
 .00006712,0.00068734,-0.00036607,-0.00037803,0.00006073,0.00136440,0.0
 0186541,0.00072963,-0.00136137,-0.00169971,-0.01232543,-0.00058757,-0.
 00235951,0.00248136,0.00068819,0.00099715,-0.00042764,0.00075112,-0.00
 007339,-0.00007813,-0.00020369,0.00011939,-0.00004676,-0.00010515,-0.0
 0028790,0.00001745,-0.00038408,0.00016805,-0.00017104,-0.00088995,-0.0
 0009904,0.00000062,-0.00001344,0.02640694,-0.43339114,0.05235555,-0.00
 008728,-0.00801439,-0.00430827,-0.02408617,0.45165474,0.00076543,0.000
 03200,-0.00049361,-0.00059100,0.00086253,0.00124522,0.00202931,-0.0008
 2816,0.00122283,-0.00909743,-0.00402601,-0.00110975,0.00141965,-0.0016
 3061,0.00005817,-0.00039563,-0.00017627,-0.00061346,-0.00001820,0.0000
 9130,0.00001513,-0.00001851,-0.00006423,-0.00006124,-0.00017955,-0.000
 41375,-0.00012135,0.00069996,0.00095923,-0.00032855,0.00004104,0.00001
 179,-0.00000147,0.02962858,0.01939665,-0.03696328,-0.00363198,0.034274
 33,-0.00218389,-0.02057596,-0.04655301,0.03927419,-0.00024193,0.000165
 79,0.00006239,0.00020555,-0.00007558,-0.00006396,-0.00044241,0.0002800
 0,0.00016897,0.00400611,-0.00115835,-0.00004543,-0.00051442,0.00010217
 ,0.00018967,0.00030237,-0.00015343,-0.00012095,-0.00005472,0.00002857,
 0.00000531,-0.00006041,0.00007146,-0.00001852,0.00003532,-0.00003191,0
 .00003252,0.00011063,0.00014556,0.00001276,-0.00005872,-0.00000810,0.0
 0004688,-0.00377995,-0.00357548,-0.00702470,-0.00116836,-0.00047964,-0
 .00053258,-0.00069672,0.00014369,-0.00048544,0.41344554,-0.00037815,0.
 00032395,0.00002782,0.00004986,0.00018733,0.00011093,-0.00059226,0.000
 66898,0.00029920,0.00325733,-0.00193208,-0.00111562,-0.00088732,-0.000
 23535,0.00049754,0.00044478,-0.00011989,-0.00012852,-0.00003079,0.0000
 2265,-0.00003796,-0.00009664,0.00005460,-0.00005424,-0.00003711,-0.000
 02767,-0.00037849,0.00013438,0.00020267,-0.00006969,-0.00002570,-0.000
 00795,0.00002142,-0.00680757,0.00095724,-0.00572068,-0.00060094,-0.000
 44422,-0.00030126,0.00098215,0.00054910,0.00122072,-0.07240485,0.27081
 967,-0.00063776,0.00021571,0.00025243,0.00050910,-0.00024454,-0.000035
 64,-0.00088162,0.00112874,-0.00020180,0.00555245,-0.00260088,-0.001633
 17,-0.00110467,0.00028797,0.00079148,0.00021033,-0.00003870,0.00016272
 ,-0.00007773,-0.00001565,-0.00000682,-0.00005736,0.00006784,-0.0000291
 9,0.00004667,-0.00019382,0.00015703,-0.00004911,-0.00022860,-0.0001768
 7,-0.00015148,-0.00003785,0.00002776,-0.01117515,-0.00458417,-0.006235
 07,0.00064386,0.00052686,0.00106161,-0.00059950,0.00018125,-0.00060592
 ,0.04404093,0.30829099,0.40247426,-0.00011576,0.00002702,0.00005256,0.
 00004504,0.00003019,0.00002025,-0.00006804,0.00032127,-0.00003067,0.00
 056514,-0.00046164,-0.00046262,-0.00009373,-0.00005797,0.00027263,-0.0
 0003892,0.00004974,0.00008064,0.00000675,-0.00001331,-0.00001089,0.000
 00291,-0.00001241,-0.00000509,-0.00001363,-0.00002975,-0.00001998,-0.0
 0002773,-0.00005723,-0.00005709,-0.00000841,-0.00000682,-0.00001471,-0
 .00195889,-0.00017232,-0.00093661,0.00014654,0.00012839,0.00016586,0.0
 0012870,0.00007127,0.00016726,-0.19206466,0.18517573,0.16765189,0.1800
 0729,0.00001158,-0.00015239,0.00003996,0.00011140,-0.00007460,-0.00007
 176,-0.00008923,0.00005355,-0.00008630,-0.00040889,0.00018619,-0.00016
 835,0.00021440,0.00004153,0.00009702,-0.00020753,0.00016613,0.00009980
 ,0.00001692,-0.00001419,0.00000816,0.00003728,-0.00001915,0.00003089,-
 0.00000663,0.00000753,0.00009373,-0.00006149,-0.00014760,-0.00005270,-
 0.00001086,-0.00000252,-0.00001179,-0.00005051,0.00013937,0.00022567,0
 .00006369,0.00005735,-0.00000213,0.00004454,-0.00001923,-0.00008259,0.
 15110656,-0.19119598,-0.18777155,-0.16589866,0.20230579,0.00004273,0.0
 0006089,-0.00011697,-0.00020996,0.00013469,0.00014375,0.00018016,0.000
 10867,0.00012812,-0.00036487,-0.00019257,-0.00017090,-0.00013472,-0.00
 006830,0.00010373,0.00007658,-0.00004569,-0.00002246,0.00003241,-0.000
 00162,-0.00000912,-0.00000590,-0.00001513,-0.00000284,-0.00002763,0.00
 000260,-0.00019103,-0.00000652,0.00003560,0.00000147,0.00004395,0.0000
 1930,-0.00000523,-0.00075148,0.00019106,-0.00008759,0.00008922,-0.0000
 5570,0.00001285,0.00010788,-0.00001041,0.00011817,0.12527652,-0.176613
 92,-0.17914013,-0.14765547,0.19658434,0.19682319,0.00059120,-0.0003107
 3,-0.00018339,-0.00035306,0.00013175,0.00018022,0.00099401,-0.00078591
 ,-0.00002202,-0.00894377,0.00146789,-0.00128849,0.00113436,-0.00001397
 ,-0.00045166,-0.00037302,0.00023615,0.00017659,0.00005401,-0.00002866,
 -0.00000563,0.00009076,-0.00009094,0.00003005,-0.00002475,0.00001829,0
 .00004652,-0.00007557,-0.00005722,0.00002792,0.00010815,0.00001552,-0.
 00005168,0.00142816,0.00179191,0.00523588,0.00172084,0.00070540,0.0006
 1514,0.00054854,-0.00063374,0.00024246,-0.21902324,-0.10818290,-0.2039
 2086,0.01348741,0.01512742,0.02330711,0.20863598,0.00055329,-0.0002897
 6,-0.00010410,-0.00023133,-0.00013878,-0.00007056,0.00105045,-0.001036
 98,-0.00027160,-0.00402011,0.00259946,0.00186751,0.00109135,0.00022844
 ,-0.00070742,-0.00038055,0.00001309,0.00010985,0.00002082,-0.00001968,
 0.00003179,0.00008289,-0.00005468,0.00003866,0.00003050,-0.00000302,0.
 00034792,-0.00010408,-0.00010467,0.00013181,0.00006061,0.00001091,-0.0
 0002395,0.00611341,-0.00526379,0.00428598,0.00106081,0.00070334,0.0006
 2283,-0.00268780,-0.00170720,-0.00307392,-0.07415648,-0.07982306,-0.11
 498361,-0.01909352,-0.01133179,-0.02013380,0.09060973,0.09621816,0.000
 94441,-0.00041488,-0.00025340,-0.00050722,0.00025289,-0.00001203,0.001
 34737,-0.00166945,0.00019963,-0.00835709,0.00377815,0.00207212,0.00196
 618,-0.00032202,-0.00117229,-0.00042244,0.00014333,-0.00013210,0.00006
 129,0.00001241,0.00000420,0.00010036,-0.00009228,0.00003998,-0.0000330
 1,0.00020723,0.00000947,0.00006772,0.00026139,0.00017163,0.00016140,0.
 00002938,-0.00004092,0.01089880,0.00274854,0.00060965,-0.00211742,-0.0
 0132918,-0.00328368,0.00059016,-0.00055750,0.00054879,-0.16154437,-0.1
 2604823,-0.21686267,-0.01921797,-0.00893241,-0.01758502,0.17606182,0.1
 3193262,0.23568663\\-0.00000046,-0.00000302,0.00000363,-0.00000120,-0.
 00000224,0.00000092,-0.00000172,0.00000212,0.00000161,-0.00000357,0.00
 000382,-0.00000157,0.00000167,-0.00000119,-0.00000192,0.00000084,-0.00
 000716,-0.00000144,-0.00000203,-0.00000508,0.00000205,-0.00000487,-0.0
 0000027,0.00000494,-0.00000189,0.00000387,0.00000280,0.00000404,-0.000
 00249,-0.00000320,0.00000118,-0.00000565,-0.00000133,0.00005054,-0.000
 06833,0.00000021,0.00000287,0.00000768,0.00000058,0.00000101,0.0000039
 0,-0.00000398,0.00009026,-0.00012982,-0.00000774,-0.00000056,-0.000002
 99,0.00000463,-0.00013611,0.00020684,-0.00000019\\\@


 THE MOST BEAUTIFUL EXPERIENCE WE CAN HAVE IS THE MYSTERIOUS.
 IT IS THE FUNDAMENTAL EMOTION WHICH STANDS AT AT THE CRADLE 
 OF TRUE ART AND TRUE SCIENCE.

                                    -- ALBERT EINSTEIN
 Job cpu time:       0 days  8 hours 50 minutes 50.2 seconds.
 File lengths (MBytes):  RWF=    368 Int=      0 D2E=      0 Chk=     25 Scr=      1
 Normal termination of Gaussian 09 at Fri Oct  1 12:50:04 2021.
