 Entering Gaussian System, Link 0=/opt/cluster/programs/g09/g09_d.01/g09//g09
 Input=/home/kaeser/nnprojects/hydra_challenge/b3lypd3/67-64-1.com
 Output=/scratch/kaeser/67-64-1/67-64-1.out
 Initial command:
 /opt/cluster/programs/g09/g09_d.01/g09/l1.exe "/scratch/kaeser/67-64-1/Gau-193368.inp" -scrdir="/scratch/kaeser/67-64-1/"
 Entering Link 1 = /opt/cluster/programs/g09/g09_d.01/g09/l1.exe PID=    193377.
  
 Copyright (c) 1988,1990,1992,1993,1995,1998,2003,2009,2013,
            Gaussian, Inc.  All Rights Reserved.
  
 This is part of the Gaussian(R) 09 program.  It is based on
 the Gaussian(R) 03 system (copyright 2003, Gaussian, Inc.),
 the Gaussian(R) 98 system (copyright 1998, Gaussian, Inc.),
 the Gaussian(R) 94 system (copyright 1995, Gaussian, Inc.),
 the Gaussian 92(TM) system (copyright 1992, Gaussian, Inc.),
 the Gaussian 90(TM) system (copyright 1990, Gaussian, Inc.),
 the Gaussian 88(TM) system (copyright 1988, Gaussian, Inc.),
 the Gaussian 86(TM) system (copyright 1986, Carnegie Mellon
 University), and the Gaussian 82(TM) system (copyright 1983,
 Carnegie Mellon University). Gaussian is a federally registered
 trademark of Gaussian, Inc.
  
 This software contains proprietary and confidential information,
 including trade secrets, belonging to Gaussian, Inc.
  
 This software is provided under written license and may be
 used, copied, transmitted, or stored only in accord with that
 written license.
  
 The following legend is applicable only to US Government
 contracts under FAR:
  
                    RESTRICTED RIGHTS LEGEND
  
 Use, reproduction and disclosure by the US Government is
 subject to restrictions as set forth in subparagraphs (a)
 and (c) of the Commercial Computer Software - Restricted
 Rights clause in FAR 52.227-19.
  
 Gaussian, Inc.
 340 Quinnipiac St., Bldg. 40, Wallingford CT 06492
  
  
 ---------------------------------------------------------------
 Warning -- This program may not be used in any manner that
 competes with the business of Gaussian, Inc. or will provide
 assistance to any competitor of Gaussian, Inc.  The licensee
 of this program is prohibited from giving any competitor of
 Gaussian, Inc. access to this program.  By using this program,
 the user acknowledges that Gaussian, Inc. is engaged in the
 business of creating and licensing software in the field of
 computational chemistry and represents and warrants to the
 licensee that it is not a competitor of Gaussian, Inc. and that
 it will not use this program in any manner prohibited above.
 ---------------------------------------------------------------
  

 Cite this work as:
 Gaussian 09, Revision D.01,
 M. J. Frisch, G. W. Trucks, H. B. Schlegel, G. E. Scuseria, 
 M. A. Robb, J. R. Cheeseman, G. Scalmani, V. Barone, B. Mennucci, 
 G. A. Petersson, H. Nakatsuji, M. Caricato, X. Li, H. P. Hratchian, 
 A. F. Izmaylov, J. Bloino, G. Zheng, J. L. Sonnenberg, M. Hada, 
 M. Ehara, K. Toyota, R. Fukuda, J. Hasegawa, M. Ishida, T. Nakajima, 
 Y. Honda, O. Kitao, H. Nakai, T. Vreven, J. A. Montgomery, Jr., 
 J. E. Peralta, F. Ogliaro, M. Bearpark, J. J. Heyd, E. Brothers, 
 K. N. Kudin, V. N. Staroverov, T. Keith, R. Kobayashi, J. Normand, 
 K. Raghavachari, A. Rendell, J. C. Burant, S. S. Iyengar, J. Tomasi, 
 M. Cossi, N. Rega, J. M. Millam, M. Klene, J. E. Knox, J. B. Cross, 
 V. Bakken, C. Adamo, J. Jaramillo, R. Gomperts, R. E. Stratmann, 
 O. Yazyev, A. J. Austin, R. Cammi, C. Pomelli, J. W. Ochterski, 
 R. L. Martin, K. Morokuma, V. G. Zakrzewski, G. A. Voth, 
 P. Salvador, J. J. Dannenberg, S. Dapprich, A. D. Daniels, 
 O. Farkas, J. B. Foresman, J. V. Ortiz, J. Cioslowski, 
 and D. J. Fox, Gaussian, Inc., Wallingford CT, 2013.
 
 ******************************************
 Gaussian 09:  ES64L-G09RevD.01 24-Apr-2013
                30-Sep-2021 
 ******************************************
 %chk=67-64-1.chk
 %mem=2GB
 %nprocshared=2
 Will use up to    2 processors via shared memory.
 ----------------------------------------------------------------------
 # opt freq b3lyp/aug-cc-pvtz EmpiricalDispersion=GD3 geom=connectivity
 ----------------------------------------------------------------------
 1/14=-1,18=20,19=15,26=3,38=1,57=2/1,3;
 2/9=110,12=2,17=6,18=5,40=1/2;
 3/5=16,6=1,7=10,11=2,16=1,25=1,30=1,71=1,74=-5,124=31/1,2,3;
 4//1;
 5/5=2,38=5/2;
 6/7=2,8=2,9=2,10=2,28=1/1;
 7//1,2,3,16;
 1/14=-1,18=20,19=15,26=3/3(2);
 2/9=110/2;
 99//99;
 2/9=110/2;
 3/5=16,6=1,7=10,11=2,16=1,25=1,30=1,71=1,74=-5,124=31/1,2,3;
 4/5=5,16=3,69=1/1;
 5/5=2,38=5/2;
 7//1,2,3,16;
 1/14=-1,18=20,19=15,26=3/3(-5);
 2/9=110/2;
 6/7=2,8=2,9=2,10=2,19=2,28=1/1;
 99/9=1/99;
 -------------------
 Title Card Required
 -------------------
 Symbolic Z-matrix:
 Charge =  0 Multiplicity = 1
 C                    -0.72214  -0.09197  -0.00947 
 O                     0.05497  -1.02609  -0.05344 
 C                    -0.25925   1.34009  -0.00653 
 H                    -0.56057   1.80741  -0.94478 
 H                    -0.75249   1.89178   0.79274 
 H                     0.81911   1.39325   0.09673 
 C                    -2.20944  -0.32183   0.03864 
 H                    -2.70523   0.25533  -0.74075 
 H                    -2.43013  -1.37724  -0.07636 
 H                    -2.59862   0.0333    0.993 
 O                     2.73595  -0.05598  -0.0589 
 H                     1.89718  -0.53646  -0.10427 
 H                     3.14829  -0.36852   0.74652 
 
 Add virtual bond connecting atoms H12        and O2         Dist= 3.60D+00.

 GradGradGradGradGradGradGradGradGradGradGradGradGradGradGradGradGradGrad
 Berny optimization.
 Initialization pass.
                           ----------------------------
                           !    Initial Parameters    !
                           ! (Angstroms and Degrees)  !
 --------------------------                            --------------------------
 ! Name  Definition              Value          Derivative Info.                !
 --------------------------------------------------------------------------------
 ! R1    R(1,2)                  1.2159         estimate D2E/DX2                !
 ! R2    R(1,3)                  1.505          estimate D2E/DX2                !
 ! R3    R(1,7)                  1.5057         estimate D2E/DX2                !
 ! R4    R(2,12)                 1.9068         estimate D2E/DX2                !
 ! R5    R(3,4)                  1.0906         estimate D2E/DX2                !
 ! R6    R(3,5)                  1.0893         estimate D2E/DX2                !
 ! R7    R(3,6)                  1.0846         estimate D2E/DX2                !
 ! R8    R(7,8)                  1.0892         estimate D2E/DX2                !
 ! R9    R(7,9)                  1.0844         estimate D2E/DX2                !
 ! R10   R(7,10)                 1.0901         estimate D2E/DX2                !
 ! R11   R(11,12)                0.9677         estimate D2E/DX2                !
 ! R12   R(11,13)                0.9573         estimate D2E/DX2                !
 ! A1    A(2,1,3)              122.3104         estimate D2E/DX2                !
 ! A2    A(2,1,7)              121.0094         estimate D2E/DX2                !
 ! A3    A(3,1,7)              116.6797         estimate D2E/DX2                !
 ! A4    A(1,2,12)             114.9073         estimate D2E/DX2                !
 ! A5    A(1,3,4)              108.7265         estimate D2E/DX2                !
 ! A6    A(1,3,5)              110.1266         estimate D2E/DX2                !
 ! A7    A(1,3,6)              110.6481         estimate D2E/DX2                !
 ! A8    A(4,3,5)              106.8046         estimate D2E/DX2                !
 ! A9    A(4,3,6)              109.6089         estimate D2E/DX2                !
 ! A10   A(5,3,6)              110.8265         estimate D2E/DX2                !
 ! A11   A(1,7,8)              110.2345         estimate D2E/DX2                !
 ! A12   A(1,7,9)              110.2566         estimate D2E/DX2                !
 ! A13   A(1,7,10)             109.3222         estimate D2E/DX2                !
 ! A14   A(8,7,9)              110.317          estimate D2E/DX2                !
 ! A15   A(8,7,10)             106.9365         estimate D2E/DX2                !
 ! A16   A(9,7,10)             109.7101         estimate D2E/DX2                !
 ! A17   A(12,11,13)           104.518          estimate D2E/DX2                !
 ! A18   A(2,12,11)            164.4988         estimate D2E/DX2                !
 ! D1    D(3,1,2,12)             0.4566         estimate D2E/DX2                !
 ! D2    D(7,1,2,12)          -179.8312         estimate D2E/DX2                !
 ! D3    D(2,1,3,4)            112.2475         estimate D2E/DX2                !
 ! D4    D(2,1,3,5)           -131.0502         estimate D2E/DX2                !
 ! D5    D(2,1,3,6)             -8.1787         estimate D2E/DX2                !
 ! D6    D(7,1,3,4)            -67.4764         estimate D2E/DX2                !
 ! D7    D(7,1,3,5)             49.2259         estimate D2E/DX2                !
 ! D8    D(7,1,3,6)            172.0974         estimate D2E/DX2                !
 ! D9    D(2,1,7,8)           -127.8953         estimate D2E/DX2                !
 ! D10   D(2,1,7,9)             -5.8571         estimate D2E/DX2                !
 ! D11   D(2,1,7,10)           114.8303         estimate D2E/DX2                !
 ! D12   D(3,1,7,8)             51.8324         estimate D2E/DX2                !
 ! D13   D(3,1,7,9)            173.8707         estimate D2E/DX2                !
 ! D14   D(3,1,7,10)           -65.442          estimate D2E/DX2                !
 ! D15   D(1,2,12,11)           14.1859         estimate D2E/DX2                !
 ! D16   D(13,11,12,2)         105.3071         estimate D2E/DX2                !
 --------------------------------------------------------------------------------
 Trust Radius=3.00D-01 FncErr=1.00D-07 GrdErr=1.00D-06
 Number of steps in this run=     56 maximum allowed number of steps=    100.
 GradGradGradGradGradGradGradGradGradGradGradGradGradGradGradGradGradGrad

                          Input orientation:                          
 ---------------------------------------------------------------------
 Center     Atomic      Atomic             Coordinates (Angstroms)
 Number     Number       Type             X           Y           Z
 ---------------------------------------------------------------------
      1          6           0       -0.722143   -0.091968   -0.009467
      2          8           0        0.054973   -1.026095   -0.053442
      3          6           0       -0.259245    1.340085   -0.006525
      4          1           0       -0.560574    1.807405   -0.944775
      5          1           0       -0.752490    1.891783    0.792735
      6          1           0        0.819110    1.393246    0.096734
      7          6           0       -2.209436   -0.321827    0.038643
      8          1           0       -2.705231    0.255331   -0.740748
      9          1           0       -2.430126   -1.377241   -0.076360
     10          1           0       -2.598619    0.033299    0.992997
     11          8           0        2.735953   -0.055978   -0.058901
     12          1           0        1.897177   -0.536460   -0.104273
     13          1           0        3.148287   -0.368519    0.746524
 ---------------------------------------------------------------------
                    Distance matrix (angstroms):
                    1          2          3          4          5
     1  C    0.000000
     2  O    1.215910   0.000000
     3  C    1.505011   2.387413   0.000000
     4  H    2.123328   3.033495   1.090642   0.000000
     5  H    2.140027   3.143569   1.089256   1.750112   0.000000
     6  H    2.143035   2.541588   1.084591   1.777582   1.789660
     7  C    1.505719   2.373188   2.562662   2.866965   2.755252
     8  H    2.141968   3.119803   2.774639   2.655205   2.973675
     9  H    2.138599   2.509890   3.478716   3.793592   3.775752
    10  H    2.131147   3.042844   2.859966   3.325062   2.627215
    11  O    3.458637   2.851107   3.304988   3.888966   4.085131
    12  H    2.658458   1.906841   2.860268   3.498669   3.704284
    13  H    3.953256   3.262046   3.885574   4.620691   4.508565
                    6          7          8          9         10
     6  H    0.000000
     7  C    3.480940   0.000000
     8  H    3.797000   1.089208   0.000000
     9  H    4.273534   1.084356   1.783924   0.000000
    10  H    3.785976   1.090124   1.751153   1.778071   0.000000
    11  O    2.408061   4.953490   5.492569   5.332393   5.438025
    12  H    2.219549   4.114701   4.713193   4.408315   4.662704
    13  H    2.991840   5.404486   6.071642   5.728294   5.766206
                   11         12         13
    11  O    0.000000
    12  H    0.967712   0.000000
    13  H    0.957293   1.522280   0.000000
 Stoichiometry    C3H8O2
 Framework group  C1[X(C3H8O2)]
 Deg. of freedom    33
 Full point group                 C1      NOp   1
 Largest Abelian subgroup         C1      NOp   1
 Largest concise Abelian subgroup C1      NOp   1
                         Standard orientation:                         
 ---------------------------------------------------------------------
 Center     Atomic      Atomic             Coordinates (Angstroms)
 Number     Number       Type             X           Y           Z
 ---------------------------------------------------------------------
      1          6           0       -0.722143   -0.091968   -0.009467
      2          8           0        0.054973   -1.026095   -0.053442
      3          6           0       -0.259245    1.340085   -0.006525
      4          1           0       -0.560574    1.807405   -0.944775
      5          1           0       -0.752490    1.891783    0.792735
      6          1           0        0.819110    1.393246    0.096734
      7          6           0       -2.209436   -0.321827    0.038643
      8          1           0       -2.705231    0.255331   -0.740748
      9          1           0       -2.430126   -1.377241   -0.076360
     10          1           0       -2.598619    0.033299    0.992997
     11          8           0        2.735953   -0.055978   -0.058901
     12          1           0        1.897177   -0.536460   -0.104273
     13          1           0        3.148287   -0.368519    0.746524
 ---------------------------------------------------------------------
 Rotational constants (GHZ):      9.2420083      2.2522446      1.8611440
 Standard basis: Aug-CC-pVTZ (5D, 7F)
 There are   475 symmetry adapted cartesian basis functions of A   symmetry.
 There are   414 symmetry adapted basis functions of A   symmetry.
   414 basis functions,   576 primitive gaussians,   475 cartesian basis functions
    21 alpha electrons       21 beta electrons
       nuclear repulsion energy       177.5642606535 Hartrees.
 NAtoms=   13 NActive=   13 NUniq=   13 SFac= 1.00D+00 NAtFMM=   60 NAOKFM=F Big=F
 Integral buffers will be    131072 words long.
 Raffenetti 2 integral format.
 Two-electron integral symmetry is turned on.
 Nuclear repulsion after empirical dispersion term =      177.5571886390 Hartrees.
 One-electron integrals computed using PRISM.
 NBasis=   414 RedAO= T EigKep=  1.13D-05  NBF=   414
 NBsUse=   414 1.00D-06 EigRej= -1.00D+00 NBFU=   414
 ExpMin= 2.53D-02 ExpMax= 1.53D+04 ExpMxC= 5.22D+02 IAcc=3 IRadAn=         5 AccDes= 0.00D+00
 Harris functional with IExCor=  402 and IRadAn=       5 diagonalized for initial guess.
 HarFok:  IExCor=  402 AccDes= 0.00D+00 IRadAn=         5 IDoV= 1 UseB2=F ITyADJ=14
 ICtDFT=  3500011 ScaDFX=  1.000000  1.000000  1.000000  1.000000
 FoFCou: FMM=F IPFlag=           0 FMFlag=      100000 FMFlg1=           0
         NFxFlg=           0 DoJE=T BraDBF=F KetDBF=T FulRan=T
         wScrn=  0.000000 ICntrl=     500 IOpCl=  0 I1Cent=   200000004 NGrid=           0
         NMat0=    1 NMatS0=      1 NMatT0=    0 NMatD0=    1 NMtDS0=    0 NMtDT0=    0
 Petite list used in FoFCou.
 Requested convergence on RMS density matrix=1.00D-08 within 128 cycles.
 Requested convergence on MAX density matrix=1.00D-06.
 Requested convergence on             energy=1.00D-06.
 No special actions if energy rises.
 SCF Done:  E(RB3LYP) =  -269.717552116     A.U. after   11 cycles
            NFock= 11  Conv=0.30D-08     -V/T= 2.0060

 **********************************************************************

            Population analysis using the SCF density.

 **********************************************************************

 Orbital symmetries:
       Occupied  (A) (A) (A) (A) (A) (A) (A) (A) (A) (A) (A) (A)
                 (A) (A) (A) (A) (A) (A) (A) (A) (A)
       Virtual   (A) (A) (A) (A) (A) (A) (A) (A) (A) (A) (A) (A)
                 (A) (A) (A) (A) (A) (A) (A) (A) (A) (A) (A) (A)
                 (A) (A) (A) (A) (A) (A) (A) (A) (A) (A) (A) (A)
                 (A) (A) (A) (A) (A) (A) (A) (A) (A) (A) (A) (A)
                 (A) (A) (A) (A) (A) (A) (A) (A) (A) (A) (A) (A)
                 (A) (A) (A) (A) (A) (A) (A) (A) (A) (A) (A) (A)
                 (A) (A) (A) (A) (A) (A) (A) (A) (A) (A) (A) (A)
                 (A) (A) (A) (A) (A) (A) (A) (A) (A) (A) (A) (A)
                 (A) (A) (A) (A) (A) (A) (A) (A) (A) (A) (A) (A)
                 (A) (A) (A) (A) (A) (A) (A) (A) (A) (A) (A) (A)
                 (A) (A) (A) (A) (A) (A) (A) (A) (A) (A) (A) (A)
                 (A) (A) (A) (A) (A) (A) (A) (A) (A) (A) (A) (A)
                 (A) (A) (A) (A) (A) (A) (A) (A) (A) (A) (A) (A)
                 (A) (A) (A) (A) (A) (A) (A) (A) (A) (A) (A) (A)
                 (A) (A) (A) (A) (A) (A) (A) (A) (A) (A) (A) (A)
                 (A) (A) (A) (A) (A) (A) (A) (A) (A) (A) (A) (A)
                 (A) (A) (A) (A) (A) (A) (A) (A) (A) (A) (A) (A)
                 (A) (A) (A) (A) (A) (A) (A) (A) (A) (A) (A) (A)
                 (A) (A) (A) (A) (A) (A) (A) (A) (A) (A) (A) (A)
                 (A) (A) (A) (A) (A) (A) (A) (A) (A) (A) (A) (A)
                 (A) (A) (A) (A) (A) (A) (A) (A) (A) (A) (A) (A)
                 (A) (A) (A) (A) (A) (A) (A) (A) (A) (A) (A) (A)
                 (A) (A) (A) (A) (A) (A) (A) (A) (A) (A) (A) (A)
                 (A) (A) (A) (A) (A) (A) (A) (A) (A) (A) (A) (A)
                 (A) (A) (A) (A) (A) (A) (A) (A) (A) (A) (A) (A)
                 (A) (A) (A) (A) (A) (A) (A) (A) (A) (A) (A) (A)
                 (A) (A) (A) (A) (A) (A) (A) (A) (A) (A) (A) (A)
                 (A) (A) (A) (A) (A) (A) (A) (A) (A) (A) (A) (A)
                 (A) (A) (A) (A) (A) (A) (A) (A) (A) (A) (A) (A)
                 (A) (A) (A) (A) (A) (A) (A) (A) (A) (A) (A) (A)
                 (A) (A) (A) (A) (A) (A) (A) (A) (A) (A) (A) (A)
                 (A) (A) (A) (A) (A) (A) (A) (A) (A) (A) (A) (A)
                 (A) (A) (A) (A) (A) (A) (A) (A) (A)
 The electronic state is 1-A.
 Alpha  occ. eigenvalues --  -19.13952 -19.10717 -10.28402 -10.18969 -10.18285
 Alpha  occ. eigenvalues --   -1.06574  -0.99111  -0.78858  -0.72629  -0.55347
 Alpha  occ. eigenvalues --   -0.51321  -0.47851  -0.47619  -0.47379  -0.41742
 Alpha  occ. eigenvalues --   -0.41474  -0.39528  -0.37411  -0.36951  -0.29686
 Alpha  occ. eigenvalues --   -0.27481
 Alpha virt. eigenvalues --   -0.04093  -0.02074   0.00113   0.00858   0.01335
 Alpha virt. eigenvalues --    0.02656   0.03206   0.03870   0.04462   0.05273
 Alpha virt. eigenvalues --    0.06883   0.07013   0.07855   0.08084   0.08839
 Alpha virt. eigenvalues --    0.08948   0.09765   0.10058   0.10443   0.10851
 Alpha virt. eigenvalues --    0.11332   0.12241   0.13016   0.13706   0.14266
 Alpha virt. eigenvalues --    0.14925   0.16460   0.16810   0.17523   0.18816
 Alpha virt. eigenvalues --    0.19751   0.20612   0.21410   0.21895   0.23528
 Alpha virt. eigenvalues --    0.24513   0.24641   0.25035   0.25792   0.26243
 Alpha virt. eigenvalues --    0.26333   0.27285   0.27619   0.28052   0.28469
 Alpha virt. eigenvalues --    0.29026   0.29643   0.30455   0.30811   0.31690
 Alpha virt. eigenvalues --    0.31875   0.32411   0.32926   0.34355   0.34637
 Alpha virt. eigenvalues --    0.35256   0.35965   0.36281   0.37763   0.38484
 Alpha virt. eigenvalues --    0.38674   0.39814   0.40818   0.41824   0.42217
 Alpha virt. eigenvalues --    0.42670   0.43659   0.44700   0.46419   0.46792
 Alpha virt. eigenvalues --    0.47106   0.47539   0.49434   0.50304   0.51648
 Alpha virt. eigenvalues --    0.53276   0.53450   0.55224   0.56049   0.56685
 Alpha virt. eigenvalues --    0.58750   0.60828   0.62674   0.63077   0.63721
 Alpha virt. eigenvalues --    0.65250   0.65499   0.66380   0.67734   0.68140
 Alpha virt. eigenvalues --    0.68724   0.69355   0.69639   0.69951   0.71473
 Alpha virt. eigenvalues --    0.73408   0.73819   0.74561   0.75502   0.75867
 Alpha virt. eigenvalues --    0.76408   0.76535   0.77589   0.78479   0.80740
 Alpha virt. eigenvalues --    0.81250   0.81809   0.83065   0.83678   0.84075
 Alpha virt. eigenvalues --    0.84882   0.85364   0.86474   0.87287   0.88477
 Alpha virt. eigenvalues --    0.89562   0.90511   0.91349   0.91903   0.93013
 Alpha virt. eigenvalues --    0.93159   0.93663   0.95430   0.96296   0.97413
 Alpha virt. eigenvalues --    0.98513   0.99783   0.99978   1.01756   1.02603
 Alpha virt. eigenvalues --    1.04009   1.05403   1.06433   1.07214   1.07795
 Alpha virt. eigenvalues --    1.09281   1.09947   1.10482   1.12114   1.13387
 Alpha virt. eigenvalues --    1.15623   1.16451   1.16976   1.17832   1.19589
 Alpha virt. eigenvalues --    1.20770   1.21444   1.22019   1.24136   1.26115
 Alpha virt. eigenvalues --    1.27305   1.28517   1.29863   1.31290   1.31442
 Alpha virt. eigenvalues --    1.32664   1.34949   1.35539   1.36339   1.38700
 Alpha virt. eigenvalues --    1.39101   1.40397   1.41151   1.42748   1.43613
 Alpha virt. eigenvalues --    1.44201   1.45151   1.45457   1.48328   1.48734
 Alpha virt. eigenvalues --    1.50048   1.51176   1.52855   1.54510   1.56164
 Alpha virt. eigenvalues --    1.56402   1.57498   1.59146   1.60029   1.60912
 Alpha virt. eigenvalues --    1.62203   1.63711   1.64795   1.66463   1.67311
 Alpha virt. eigenvalues --    1.69947   1.71833   1.73077   1.74258   1.75888
 Alpha virt. eigenvalues --    1.77128   1.78147   1.79916   1.83400   1.85591
 Alpha virt. eigenvalues --    1.87724   1.91197   1.93108   1.93576   1.96367
 Alpha virt. eigenvalues --    1.98273   1.99163   2.00676   2.00977   2.02209
 Alpha virt. eigenvalues --    2.03625   2.07039   2.12836   2.13836   2.15220
 Alpha virt. eigenvalues --    2.17131   2.18551   2.21014   2.22573   2.22816
 Alpha virt. eigenvalues --    2.26995   2.28110   2.29956   2.30756   2.33819
 Alpha virt. eigenvalues --    2.35664   2.37051   2.37902   2.40420   2.44061
 Alpha virt. eigenvalues --    2.47506   2.51803   2.53527   2.58447   2.60770
 Alpha virt. eigenvalues --    2.63558   2.65001   2.66296   2.71493   2.73107
 Alpha virt. eigenvalues --    2.75051   2.76881   2.80976   2.84483   2.86705
 Alpha virt. eigenvalues --    2.89372   2.90382   2.95445   3.03442   3.05972
 Alpha virt. eigenvalues --    3.06401   3.09496   3.10394   3.12428   3.19151
 Alpha virt. eigenvalues --    3.20209   3.21057   3.26571   3.29058   3.30292
 Alpha virt. eigenvalues --    3.32080   3.32876   3.33656   3.36439   3.38781
 Alpha virt. eigenvalues --    3.40919   3.44137   3.45179   3.51145   3.54737
 Alpha virt. eigenvalues --    3.55726   3.56458   3.57594   3.60144   3.61517
 Alpha virt. eigenvalues --    3.63405   3.64830   3.65606   3.71449   3.72398
 Alpha virt. eigenvalues --    3.73150   3.75500   3.76749   3.80097   3.81216
 Alpha virt. eigenvalues --    3.82738   3.83761   3.85152   3.85937   3.87276
 Alpha virt. eigenvalues --    3.90141   3.90502   3.93406   4.00090   4.00753
 Alpha virt. eigenvalues --    4.02427   4.04147   4.06848   4.09803   4.12470
 Alpha virt. eigenvalues --    4.13960   4.15606   4.16100   4.19013   4.19431
 Alpha virt. eigenvalues --    4.22161   4.23837   4.26340   4.28320   4.30310
 Alpha virt. eigenvalues --    4.32485   4.33138   4.37913   4.41084   4.42348
 Alpha virt. eigenvalues --    4.45290   4.47080   4.48828   4.49890   4.51271
 Alpha virt. eigenvalues --    4.53104   4.55802   4.56726   4.61287   4.64781
 Alpha virt. eigenvalues --    4.65903   4.69107   4.76509   4.78750   4.81861
 Alpha virt. eigenvalues --    4.85187   4.88748   4.89586   4.92561   4.94004
 Alpha virt. eigenvalues --    4.94999   4.96760   4.99501   5.00856   5.05901
 Alpha virt. eigenvalues --    5.07479   5.09080   5.12306   5.14902   5.19373
 Alpha virt. eigenvalues --    5.22613   5.26531   5.27896   5.33139   5.37045
 Alpha virt. eigenvalues --    5.39609   5.42253   5.45465   5.56011   5.57488
 Alpha virt. eigenvalues --    5.63270   5.66077   5.75158   5.77436   5.78309
 Alpha virt. eigenvalues --    5.81634   5.84753   5.89712   6.02766   6.17324
 Alpha virt. eigenvalues --    6.30916   6.33874   6.34450   6.36727   6.38749
 Alpha virt. eigenvalues --    6.43928   6.46628   6.52538   6.60898   6.71345
 Alpha virt. eigenvalues --    6.76626   6.77514   6.83485   6.86363   6.90806
 Alpha virt. eigenvalues --    6.91959   6.94389   7.00050   7.04075   7.07918
 Alpha virt. eigenvalues --    7.15699   7.17347   7.29852   7.31797   7.45268
 Alpha virt. eigenvalues --    7.57389   7.59879   8.46141  14.64030  15.94236
 Alpha virt. eigenvalues --   16.57484  16.65729  18.89942
          Condensed to atoms (all electrons):
               1          2          3          4          5          6
     1  C    5.155652   0.097562   0.086731  -0.003737  -0.014058   0.013333
     2  O    0.097562   8.717486  -0.027055  -0.001838  -0.003912  -0.005998
     3  C    0.086731  -0.027055   5.373827   0.400247   0.422036   0.335024
     4  H   -0.003737  -0.001838   0.400247   0.406430   0.010116  -0.013172
     5  H   -0.014058  -0.003912   0.422036   0.010116   0.405995  -0.022464
     6  H    0.013333  -0.005998   0.335024  -0.013172  -0.022464   0.407784
     7  C    0.028083  -0.031600   0.053010   0.004105   0.001627   0.000034
     8  H   -0.025400  -0.002269   0.000621  -0.004910  -0.001168  -0.000120
     9  H    0.020104  -0.002761   0.000279  -0.000600   0.000906  -0.001182
    10  H   -0.024643   0.000875   0.004662  -0.000251  -0.004303  -0.001103
    11  O    0.011680  -0.039180  -0.011821   0.004387   0.002456  -0.013464
    12  H    0.007243  -0.018453  -0.007473  -0.002228  -0.001764  -0.003515
    13  H   -0.004549   0.003987   0.001721  -0.000400  -0.000004  -0.000103
               7          8          9         10         11         12
     1  C    0.028083  -0.025400   0.020104  -0.024643   0.011680   0.007243
     2  O   -0.031600  -0.002269  -0.002761   0.000875  -0.039180  -0.018453
     3  C    0.053010   0.000621   0.000279   0.004662  -0.011821  -0.007473
     4  H    0.004105  -0.004910  -0.000600  -0.000251   0.004387  -0.002228
     5  H    0.001627  -0.001168   0.000906  -0.004303   0.002456  -0.001764
     6  H    0.000034  -0.000120  -0.001182  -0.001103  -0.013464  -0.003515
     7  C    5.410106   0.416115   0.378259   0.407595  -0.004548  -0.002238
     8  H    0.416115   0.397700  -0.011369   0.010605  -0.000559   0.000313
     9  H    0.378259  -0.011369   0.430465  -0.010226   0.000404  -0.000614
    10  H    0.407595   0.010605  -0.010226   0.398414  -0.000025  -0.000220
    11  O   -0.004548  -0.000559   0.000404  -0.000025   8.066132   0.170083
    12  H   -0.002238   0.000313  -0.000614  -0.000220   0.170083   0.530432
    13  H   -0.000552   0.000068  -0.000090  -0.000158   0.256393   0.031984
              13
     1  C   -0.004549
     2  O    0.003987
     3  C    0.001721
     4  H   -0.000400
     5  H   -0.000004
     6  H   -0.000103
     7  C   -0.000552
     8  H    0.000068
     9  H   -0.000090
    10  H   -0.000158
    11  O    0.256393
    12  H    0.031984
    13  H    0.586478
 Mulliken charges:
               1
     1  C    0.652002
     2  O   -0.686845
     3  C   -0.631808
     4  H    0.201851
     5  H    0.204538
     6  H    0.304945
     7  C   -0.659996
     8  H    0.220374
     9  H    0.196426
    10  H    0.218777
    11  O   -0.441939
    12  H    0.296450
    13  H    0.125224
 Sum of Mulliken charges =   0.00000
 Mulliken charges with hydrogens summed into heavy atoms:
               1
     1  C    0.652002
     2  O   -0.686845
     3  C    0.079526
     7  C   -0.024419
    11  O   -0.020265
 Electronic spatial extent (au):  <R**2>=            652.3998
 Charge=              0.0000 electrons
 Dipole moment (field-independent basis, Debye):
    X=             -3.2845    Y=              1.2430    Z=              1.2634  Tot=              3.7322
 Quadrupole moment (field-independent basis, Debye-Ang):
   XX=            -33.0176   YY=            -33.3067   ZZ=            -30.4792
   XY=             -2.1291   XZ=              4.3832   YZ=             -0.7564
 Traceless Quadrupole moment (field-independent basis, Debye-Ang):
   XX=             -0.7498   YY=             -1.0389   ZZ=              1.7887
   XY=             -2.1291   XZ=              4.3832   YZ=             -0.7564
 Octapole moment (field-independent basis, Debye-Ang**2):
  XXX=             -4.6336  YYY=             -0.5231  ZZZ=              1.0745  XYY=              1.6933
  XXY=             -8.2257  XXZ=             15.4873  XZZ=              3.6833  YZZ=             -0.3775
  YYZ=              0.0771  XYZ=             -1.8487
 Hexadecapole moment (field-independent basis, Debye-Ang**3):
 XXXX=           -616.1073 YYYY=           -181.4137 ZZZZ=            -45.4127 XXXY=            -16.7436
 XXXZ=             53.1097 YYYX=             -0.6202 YYYZ=             -0.2643 ZZZX=              3.8891
 ZZZY=             -1.1707 XXYY=           -128.9280 XXZZ=            -97.8511 YYZZ=            -35.8876
 XXYZ=             -6.0995 YYXZ=              1.6261 ZZXY=             -4.1157
 N-N= 1.775571886390D+02 E-N=-9.864231584569D+02  KE= 2.680984550151D+02
 Calling FoFJK, ICntrl=      2127 FMM=F ISym2X=0 I1Cent= 0 IOpClX= 0 NMat=1 NMatS=1 NMatT=0.
 ***** Axes restored to original set *****
 -------------------------------------------------------------------
 Center     Atomic                   Forces (Hartrees/Bohr)
 Number     Number              X              Y              Z
 -------------------------------------------------------------------
      1        6          -0.000517216   -0.000376193   -0.000202976
      2        8           0.001072285   -0.000534279   -0.000178158
      3        6           0.000270464   -0.000542341    0.000173398
      4        1          -0.000276244    0.000900528   -0.001244263
      5        1          -0.000429158    0.001110817    0.001011471
      6        1           0.000839136    0.001244531    0.000050297
      7        6           0.000336430   -0.000696282   -0.000182943
      8        1          -0.001045417    0.000712583   -0.000948831
      9        1          -0.000753219   -0.001336347   -0.000098884
     10        1          -0.000851489    0.000432299    0.001274059
     11        8           0.002625419    0.002509562   -0.001834786
     12        1          -0.004263384   -0.002424807   -0.000501469
     13        1           0.002992392   -0.001000070    0.002683086
 -------------------------------------------------------------------
 Cartesian Forces:  Max     0.004263384 RMS     0.001391324

 GradGradGradGradGradGradGradGradGradGradGradGradGradGradGradGradGradGrad
 Berny optimization.
 FormGI is forming the generalized inverse of G from B-inverse, IUseBI=4.
 Internal  Forces:  Max     0.006179813 RMS     0.001775571
 Search for a local minimum.
 Step number   1 out of a maximum of   56
 All quantities printed in internal units (Hartrees-Bohrs-Radians)
 Mixed Optimization -- RFO/linear search
 Second derivative matrix not updated -- first step.
 ITU=  0
     Eigenvalues ---    0.00230   0.00690   0.00700   0.01228   0.01455
     Eigenvalues ---    0.04127   0.05045   0.07232   0.07275   0.07522
     Eigenvalues ---    0.07608   0.16000   0.16000   0.16000   0.16000
     Eigenvalues ---    0.16000   0.16000   0.16000   0.16000   0.25000
     Eigenvalues ---    0.25000   0.25000   0.31785   0.31857   0.34739
     Eigenvalues ---    0.34798   0.34899   0.34904   0.35445   0.35473
     Eigenvalues ---    0.53847   0.56060   0.97219
 RFO step:  Lambda=-9.66213025D-04 EMin= 2.30000000D-03
 Linear search not attempted -- first point.
 Iteration  1 RMS(Cart)=  0.08728644 RMS(Int)=  0.02007924
 Iteration  2 RMS(Cart)=  0.03158252 RMS(Int)=  0.00222420
 Iteration  3 RMS(Cart)=  0.00201702 RMS(Int)=  0.00000892
 Iteration  4 RMS(Cart)=  0.00000848 RMS(Int)=  0.00000738
 Iteration  5 RMS(Cart)=  0.00000000 RMS(Int)=  0.00000738
 Variable       Old X    -DE/DX   Delta X   Delta X   Delta X     New X
                                 (Linear)    (Quad)   (Total)
    R1        2.29774   0.00266   0.00000   0.00274   0.00274   2.30047
    R2        2.84406   0.00271   0.00000   0.00847   0.00847   2.85253
    R3        2.84540   0.00242   0.00000   0.00760   0.00760   2.85300
    R4        3.60341   0.00106   0.00000   0.02060   0.02060   3.62401
    R5        2.06101   0.00153   0.00000   0.00440   0.00440   2.06542
    R6        2.05839   0.00150   0.00000   0.00428   0.00428   2.06267
    R7        2.04958   0.00090   0.00000   0.00254   0.00254   2.05212
    R8        2.05831   0.00153   0.00000   0.00438   0.00438   2.06269
    R9        2.04914   0.00146   0.00000   0.00411   0.00411   2.05325
   R10        2.06004   0.00156   0.00000   0.00447   0.00447   2.06451
   R11        1.82871   0.00565   0.00000   0.01048   0.01048   1.83919
   R12        1.80902   0.00388   0.00000   0.00690   0.00690   1.81592
    A1        2.13472   0.00229   0.00000   0.00913   0.00913   2.14385
    A2        2.11201  -0.00176   0.00000  -0.00702  -0.00702   2.10499
    A3        2.03644  -0.00053   0.00000  -0.00213  -0.00213   2.03431
    A4        2.00551   0.00618   0.00000   0.03839   0.03839   2.04390
    A5        1.89764   0.00004   0.00000  -0.00020  -0.00020   1.89743
    A6        1.92207   0.00027   0.00000   0.00149   0.00148   1.92355
    A7        1.93117   0.00162   0.00000   0.01066   0.01065   1.94182
    A8        1.86409  -0.00037   0.00000  -0.00354  -0.00354   1.86055
    A9        1.91304  -0.00075   0.00000  -0.00433  -0.00434   1.90870
   A10        1.93429  -0.00087   0.00000  -0.00460  -0.00462   1.92967
   A11        1.92396   0.00039   0.00000   0.00243   0.00243   1.92638
   A12        1.92434   0.00053   0.00000   0.00351   0.00350   1.92784
   A13        1.90803   0.00026   0.00000   0.00140   0.00139   1.90943
   A14        1.92540  -0.00042   0.00000  -0.00222  -0.00223   1.92317
   A15        1.86639  -0.00038   0.00000  -0.00276  -0.00276   1.86363
   A16        1.91480  -0.00041   0.00000  -0.00254  -0.00254   1.91226
   A17        1.82418   0.00233   0.00000   0.01450   0.01450   1.83868
   A18        2.87105   0.00202   0.00000   0.00805   0.00805   2.87909
    D1        0.00797   0.00032   0.00000   0.00907   0.00908   0.01704
    D2       -3.13865   0.00026   0.00000   0.00457   0.00457  -3.13408
    D3        1.95909   0.00009   0.00000  -0.00029  -0.00030   1.95879
    D4       -2.28726  -0.00018   0.00000  -0.00383  -0.00385  -2.29110
    D5       -0.14274   0.00000   0.00000  -0.00138  -0.00139  -0.14413
    D6       -1.17769   0.00015   0.00000   0.00404   0.00405  -1.17363
    D7        0.85915  -0.00012   0.00000   0.00050   0.00051   0.85966
    D8        3.00367   0.00007   0.00000   0.00295   0.00296   3.00663
    D9       -2.23219  -0.00004   0.00000   0.00092   0.00091  -2.23129
   D10       -0.10223   0.00005   0.00000   0.00208   0.00207  -0.10015
   D11        2.00417   0.00005   0.00000   0.00203   0.00202   2.00618
   D12        0.90465  -0.00008   0.00000  -0.00330  -0.00329   0.90135
   D13        3.03462   0.00000   0.00000  -0.00214  -0.00213   3.03248
   D14       -1.14218   0.00000   0.00000  -0.00220  -0.00218  -1.14436
   D15        0.24759   0.00102   0.00000   0.31259   0.31259   0.56018
   D16        1.83796   0.00122   0.00000   0.07837   0.07837   1.91632
         Item               Value     Threshold  Converged?
 Maximum Force            0.006180     0.000450     NO 
 RMS     Force            0.001776     0.000300     NO 
 Maximum Displacement     0.503296     0.001800     NO 
 RMS     Displacement     0.114251     0.001200     NO 
 Predicted change in Energy=-5.347783D-04
 GradGradGradGradGradGradGradGradGradGradGradGradGradGradGradGradGradGrad

                          Input orientation:                          
 ---------------------------------------------------------------------
 Center     Atomic      Atomic             Coordinates (Angstroms)
 Number     Number       Type             X           Y           Z
 ---------------------------------------------------------------------
      1          6           0       -0.725966   -0.056575   -0.002279
      2          8           0        0.076680   -0.971467   -0.028604
      3          6           0       -0.313070    1.395230   -0.021133
      4          1           0       -0.628010    1.837103   -0.969895
      5          1           0       -0.831692    1.945046    0.766362
      6          1           0        0.762529    1.500085    0.085374
      7          6           0       -2.209025   -0.336070    0.039410
      8          1           0       -2.721661    0.213340   -0.752288
      9          1           0       -2.397656   -1.401404   -0.060751
     10          1           0       -2.619039    0.020538    0.987174
     11          8           0        2.797621   -0.065789    0.050391
     12          1           0        1.935694   -0.502125   -0.067612
     13          1           0        3.291230   -0.634852    0.646993
 ---------------------------------------------------------------------
                    Distance matrix (angstroms):
                    1          2          3          4          5
     1  C    0.000000
     2  O    1.217358   0.000000
     3  C    1.509495   2.398586   0.000000
     4  H    2.128823   3.044779   1.092972   0.000000
     5  H    2.146735   3.156446   1.091519   1.751493   0.000000
     6  H    2.155572   2.567479   1.085933   1.777856   1.789769
     7  C    1.509742   2.373353   2.568212   2.870711   2.762063
     8  H    2.148992   3.123812   2.780785   2.658446   2.979444
     9  H    2.146283   2.511617   3.488299   3.800804   3.786170
    10  H    2.137449   3.046765   2.867744   3.330799   2.635735
    11  O    3.523993   2.868800   3.437454   4.049313   4.210461
    12  H    2.699485   1.917743   2.942628   3.585901   3.787161
    13  H    4.110210   3.301980   4.190299   4.907681   4.865039
                    6          7          8          9         10
     6  H    0.000000
     7  C    3.493381   0.000000
     8  H    3.807489   1.091527   0.000000
     9  H    4.292640   1.086532   1.786225   0.000000
    10  H    3.799645   1.092491   1.753121   1.780190   0.000000
    11  O    2.568032   5.013949   5.584325   5.365363   5.497747
    12  H    2.325633   4.149425   4.761474   4.425683   4.704396
    13  H    3.356740   5.541772   6.231556   5.783764   5.956219
                   11         12         13
    11  O    0.000000
    12  H    0.973259   0.000000
    13  H    0.960946   1.538101   0.000000
 Stoichiometry    C3H8O2
 Framework group  C1[X(C3H8O2)]
 Deg. of freedom    33
 Full point group                 C1      NOp   1
 Largest Abelian subgroup         C1      NOp   1
 Largest concise Abelian subgroup C1      NOp   1
                         Standard orientation:                         
 ---------------------------------------------------------------------
 Center     Atomic      Atomic             Coordinates (Angstroms)
 Number     Number       Type             X           Y           Z
 ---------------------------------------------------------------------
      1          6           0       -0.731775   -0.087282   -0.012739
      2          8           0        0.088123   -0.985087   -0.073346
      3          6           0       -0.347928    1.372581   -0.006437
      4          1           0       -0.688334    1.828725   -0.939520
      5          1           0       -0.863175    1.894494    0.801983
      6          1           0        0.727124    1.496639    0.083695
      7          6           0       -2.208071   -0.397326    0.048450
      8          1           0       -2.745425    0.158900   -0.721807
      9          1           0       -2.377454   -1.463781   -0.072109
     10          1           0       -2.608094   -0.069867    1.010889
     11          8           0        2.791690   -0.026942   -0.021444
     12          1           0        1.936553   -0.477795   -0.134154
     13          1           0        3.306939   -0.598919    0.553688
 ---------------------------------------------------------------------
 Rotational constants (GHZ):      9.0917586      2.1849568      1.8062211
 Standard basis: Aug-CC-pVTZ (5D, 7F)
 There are   475 symmetry adapted cartesian basis functions of A   symmetry.
 There are   414 symmetry adapted basis functions of A   symmetry.
   414 basis functions,   576 primitive gaussians,   475 cartesian basis functions
    21 alpha electrons       21 beta electrons
       nuclear repulsion energy       176.2113464333 Hartrees.
 NAtoms=   13 NActive=   13 NUniq=   13 SFac= 1.00D+00 NAtFMM=   60 NAOKFM=F Big=F
 Integral buffers will be    131072 words long.
 Raffenetti 2 integral format.
 Two-electron integral symmetry is turned on.
 Nuclear repulsion after empirical dispersion term =      176.2044643947 Hartrees.
 One-electron integrals computed using PRISM.
 NBasis=   414 RedAO= T EigKep=  1.13D-05  NBF=   414
 NBsUse=   414 1.00D-06 EigRej= -1.00D+00 NBFU=   414
 Initial guess from the checkpoint file:  "67-64-1.chk"
 B after Tr=     0.000000    0.000000    0.000000
         Rot=    0.999916   -0.006946   -0.000809   -0.010905 Ang=  -1.48 deg.
 ExpMin= 2.53D-02 ExpMax= 1.53D+04 ExpMxC= 5.22D+02 IAcc=3 IRadAn=         5 AccDes= 0.00D+00
 Harris functional with IExCor=  402 and IRadAn=       5 diagonalized for initial guess.
 HarFok:  IExCor=  402 AccDes= 0.00D+00 IRadAn=         5 IDoV= 1 UseB2=F ITyADJ=14
 ICtDFT=  3500011 ScaDFX=  1.000000  1.000000  1.000000  1.000000
 FoFCou: FMM=F IPFlag=           0 FMFlag=      100000 FMFlg1=           0
         NFxFlg=           0 DoJE=T BraDBF=F KetDBF=T FulRan=T
         wScrn=  0.000000 ICntrl=     500 IOpCl=  0 I1Cent=   200000004 NGrid=           0
         NMat0=    1 NMatS0=      1 NMatT0=    0 NMatD0=    1 NMtDS0=    0 NMtDT0=    0
 Petite list used in FoFCou.
 Requested convergence on RMS density matrix=1.00D-08 within 128 cycles.
 Requested convergence on MAX density matrix=1.00D-06.
 Requested convergence on             energy=1.00D-06.
 No special actions if energy rises.
 SCF Done:  E(RB3LYP) =  -269.717921850     A.U. after   10 cycles
            NFock= 10  Conv=0.64D-08     -V/T= 2.0063
 Calling FoFJK, ICntrl=      2127 FMM=F ISym2X=0 I1Cent= 0 IOpClX= 0 NMat=1 NMatS=1 NMatT=0.
 ***** Axes restored to original set *****
 -------------------------------------------------------------------
 Center     Atomic                   Forces (Hartrees/Bohr)
 Number     Number              X              Y              Z
 -------------------------------------------------------------------
      1        6          -0.000607869   -0.002577729   -0.000564027
      2        8           0.000126214    0.003474228   -0.000540544
      3        6           0.000174284   -0.001016673   -0.000354497
      4        1          -0.000015764   -0.000061306   -0.000102582
      5        1           0.000359754   -0.000012397    0.000128908
      6        1           0.000484182   -0.000242286    0.000468967
      7        6          -0.000177803    0.000363972    0.000275466
      8        1          -0.000137018    0.000014033   -0.000040324
      9        1           0.000146528    0.000067731   -0.000005081
     10        1          -0.000111994    0.000023377    0.000070275
     11        8          -0.000764269    0.000012736   -0.000921053
     12        1           0.000794162   -0.000086119    0.002001222
     13        1          -0.000270408    0.000040435   -0.000416730
 -------------------------------------------------------------------
 Cartesian Forces:  Max     0.003474228 RMS     0.000850382

 GradGradGradGradGradGradGradGradGradGradGradGradGradGradGradGradGradGrad
 Berny optimization.
 Using GEDIIS/GDIIS optimizer.
 FormGI is forming the generalized inverse of G from B-inverse, IUseBI=4.
 Internal  Forces:  Max     0.003481769 RMS     0.000816446
 Search for a local minimum.
 Step number   2 out of a maximum of   56
 All quantities printed in internal units (Hartrees-Bohrs-Radians)
 Mixed Optimization -- En-DIIS/RFO-DIIS
 Update second derivatives using D2CorX and points    1    2
 DE= -3.70D-04 DEPred=-5.35D-04 R= 6.91D-01
 TightC=F SS=  1.41D+00  RLast= 3.27D-01 DXNew= 5.0454D-01 9.8105D-01
 Trust test= 6.91D-01 RLast= 3.27D-01 DXMaxT set to 5.05D-01
 ITU=  1  0
 Use linear search instead of GDIIS.
     Eigenvalues ---    0.00285   0.00690   0.00700   0.01233   0.01359
     Eigenvalues ---    0.04116   0.05062   0.07167   0.07240   0.07503
     Eigenvalues ---    0.07613   0.15161   0.16000   0.16000   0.16000
     Eigenvalues ---    0.16000   0.16000   0.16000   0.16141   0.24700
     Eigenvalues ---    0.25000   0.28172   0.31610   0.32731   0.34593
     Eigenvalues ---    0.34767   0.34870   0.34917   0.35374   0.35564
     Eigenvalues ---    0.54365   0.56057   0.99149
 RFO step:  Lambda=-7.95265910D-05 EMin= 2.85171760D-03
 Quartic linear search produced a step of -0.16457.
 Iteration  1 RMS(Cart)=  0.01551899 RMS(Int)=  0.00017285
 Iteration  2 RMS(Cart)=  0.00017570 RMS(Int)=  0.00001599
 Iteration  3 RMS(Cart)=  0.00000005 RMS(Int)=  0.00001599
 Variable       Old X    -DE/DX   Delta X   Delta X   Delta X     New X
                                 (Linear)    (Quad)   (Total)
    R1        2.30047  -0.00266  -0.00045  -0.00158  -0.00203   2.29844
    R2        2.85253  -0.00101  -0.00139  -0.00048  -0.00187   2.85066
    R3        2.85300   0.00020  -0.00125   0.00246   0.00121   2.85421
    R4        3.62401  -0.00026  -0.00339   0.00096  -0.00243   3.62157
    R5        2.06542   0.00007  -0.00072   0.00130   0.00057   2.06599
    R6        2.06267  -0.00009  -0.00070   0.00089   0.00018   2.06286
    R7        2.05212   0.00050  -0.00042   0.00183   0.00142   2.05353
    R8        2.06269   0.00010  -0.00072   0.00136   0.00064   2.06333
    R9        2.05325  -0.00009  -0.00068   0.00083   0.00016   2.05340
   R10        2.06451   0.00011  -0.00074   0.00142   0.00068   2.06519
   R11        1.83919  -0.00106  -0.00172   0.00104  -0.00068   1.83851
   R12        1.81592  -0.00042  -0.00114   0.00114   0.00001   1.81593
    A1        2.14385  -0.00348  -0.00150  -0.00927  -0.01079   2.13306
    A2        2.10499   0.00226   0.00116   0.00580   0.00693   2.11192
    A3        2.03431   0.00122   0.00035   0.00355   0.00389   2.03820
    A4        2.04390  -0.00075  -0.00632   0.00590  -0.00041   2.04349
    A5        1.89743   0.00005   0.00003   0.00106   0.00109   1.89852
    A6        1.92355   0.00024  -0.00024   0.00140   0.00115   1.92471
    A7        1.94182  -0.00056  -0.00175  -0.00086  -0.00261   1.93921
    A8        1.86055   0.00014   0.00058   0.00120   0.00178   1.86233
    A9        1.90870   0.00032   0.00071   0.00095   0.00167   1.91036
   A10        1.92967  -0.00015   0.00076  -0.00357  -0.00280   1.92686
   A11        1.92638   0.00018  -0.00040   0.00161   0.00121   1.92759
   A12        1.92784  -0.00025  -0.00058  -0.00053  -0.00110   1.92674
   A13        1.90943   0.00012  -0.00023   0.00106   0.00083   1.91026
   A14        1.92317   0.00001   0.00037  -0.00062  -0.00025   1.92292
   A15        1.86363  -0.00009   0.00045  -0.00089  -0.00043   1.86320
   A16        1.91226   0.00003   0.00042  -0.00064  -0.00022   1.91204
   A17        1.83868  -0.00031  -0.00239   0.00211  -0.00027   1.83841
   A18        2.87909   0.00060  -0.00132   0.00405   0.00273   2.88182
    D1        0.01704  -0.00003  -0.00149  -0.00256  -0.00404   0.01301
    D2       -3.13408   0.00016  -0.00075   0.00848   0.00771  -3.12637
    D3        1.95879  -0.00002   0.00005   0.00130   0.00132   1.96011
    D4       -2.29110   0.00031   0.00063   0.00414   0.00475  -2.28636
    D5       -0.14413  -0.00010   0.00023  -0.00003   0.00018  -0.14396
    D6       -1.17363  -0.00021  -0.00067  -0.00934  -0.00998  -1.18362
    D7        0.85966   0.00013  -0.00008  -0.00650  -0.00656   0.85310
    D8        3.00663  -0.00029  -0.00049  -0.01067  -0.01113   2.99550
    D9       -2.23129  -0.00004  -0.00015  -0.00465  -0.00483  -2.23612
   D10       -0.10015  -0.00007  -0.00034  -0.00470  -0.00507  -0.10523
   D11        2.00618  -0.00011  -0.00033  -0.00515  -0.00551   2.00067
   D12        0.90135   0.00011   0.00054   0.00565   0.00622   0.90758
   D13        3.03248   0.00008   0.00035   0.00560   0.00598   3.03847
   D14       -1.14436   0.00004   0.00036   0.00515   0.00554  -1.13882
   D15        0.56018  -0.00020  -0.05144  -0.00856  -0.06000   0.50018
   D16        1.91632   0.00036  -0.01290   0.04014   0.02724   1.94357
         Item               Value     Threshold  Converged?
 Maximum Force            0.003482     0.000450     NO 
 RMS     Force            0.000816     0.000300     NO 
 Maximum Displacement     0.059978     0.001800     NO 
 RMS     Displacement     0.015614     0.001200     NO 
 Predicted change in Energy=-5.053653D-05
 GradGradGradGradGradGradGradGradGradGradGradGradGradGradGradGradGradGrad

                          Input orientation:                          
 ---------------------------------------------------------------------
 Center     Atomic      Atomic             Coordinates (Angstroms)
 Number     Number       Type             X           Y           Z
 ---------------------------------------------------------------------
      1          6           0       -0.729667   -0.062091   -0.008611
      2          8           0        0.074341   -0.974392   -0.033485
      3          6           0       -0.304393    1.385177   -0.020774
      4          1           0       -0.610983    1.834099   -0.969310
      5          1           0       -0.818483    1.937200    0.768281
      6          1           0        0.772453    1.477609    0.092093
      7          6           0       -2.214474   -0.334713    0.039192
      8          1           0       -2.729095    0.216884   -0.750161
      9          1           0       -2.407386   -1.399395   -0.060649
     10          1           0       -2.619719    0.022905    0.989039
     11          8           0        2.790165   -0.056616    0.038841
     12          1           0        1.930969   -0.500493   -0.067393
     13          1           0        3.283907   -0.603113    0.656078
 ---------------------------------------------------------------------
                    Distance matrix (angstroms):
                    1          2          3          4          5
     1  C    0.000000
     2  O    1.216281   0.000000
     3  C    1.508506   2.389805   0.000000
     4  H    2.128982   3.038595   1.093275   0.000000
     5  H    2.146768   3.149180   1.091616   1.752972   0.000000
     6  H    2.153412   2.552536   1.086683   1.779763   1.788723
     7  C    1.510384   2.377634   2.570997   2.879584   2.764408
     8  H    2.150682   3.129219   2.788564   2.673912   2.985898
     9  H    2.146120   2.518002   3.489700   3.808964   3.787427
    10  H    2.138884   3.049281   2.869885   3.339248   2.637747
    11  O    3.520156   2.867620   3.414471   4.019823   4.186852
    12  H    2.697153   1.916455   2.924854   3.567253   3.768314
    13  H    4.104058   3.303734   4.157803   4.873608   4.826529
                    6          7          8          9         10
     6  H    0.000000
     7  C    3.494144   0.000000
     8  H    3.815711   1.091866   0.000000
     9  H    4.290904   1.086614   1.786416   0.000000
    10  H    3.798356   1.092851   1.753398   1.780412   0.000000
    11  O    2.535320   5.012359   5.582074   5.369123   5.493273
    12  H    2.297931   4.150125   4.764137   4.430507   4.700932
    13  H    3.309817   5.539384   6.229454   5.791250   5.946054
                   11         12         13
    11  O    0.000000
    12  H    0.972898   0.000000
    13  H    0.960948   1.537654   0.000000
 Stoichiometry    C3H8O2
 Framework group  C1[X(C3H8O2)]
 Deg. of freedom    33
 Full point group                 C1      NOp   1
 Largest Abelian subgroup         C1      NOp   1
 Largest concise Abelian subgroup C1      NOp   1
                         Standard orientation:                         
 ---------------------------------------------------------------------
 Center     Atomic      Atomic             Coordinates (Angstroms)
 Number     Number       Type             X           Y           Z
 ---------------------------------------------------------------------
      1          6           0       -0.734177   -0.088410   -0.016617
      2          8           0        0.082563   -0.987944   -0.072427
      3          6           0       -0.330337    1.365001   -0.006596
      4          1           0       -0.658696    1.827933   -0.941007
      5          1           0       -0.839652    1.893609    0.801363
      6          1           0        0.746724    1.471245    0.091042
      7          6           0       -2.213881   -0.384048    0.049217
      8          1           0       -2.749156    0.175283   -0.720719
      9          1           0       -2.392807   -1.449311   -0.068806
     10          1           0       -2.608947   -0.051335    1.012310
     11          8           0        2.785507   -0.031352   -0.024762
     12          1           0        1.931285   -0.485817   -0.126233
     13          1           0        3.297060   -0.582498    0.573547
 ---------------------------------------------------------------------
 Rotational constants (GHZ):      9.1552666      2.1884530      1.8114441
 Standard basis: Aug-CC-pVTZ (5D, 7F)
 There are   475 symmetry adapted cartesian basis functions of A   symmetry.
 There are   414 symmetry adapted basis functions of A   symmetry.
   414 basis functions,   576 primitive gaussians,   475 cartesian basis functions
    21 alpha electrons       21 beta electrons
       nuclear repulsion energy       176.3585262248 Hartrees.
 NAtoms=   13 NActive=   13 NUniq=   13 SFac= 1.00D+00 NAtFMM=   60 NAOKFM=F Big=F
 Integral buffers will be    131072 words long.
 Raffenetti 2 integral format.
 Two-electron integral symmetry is turned on.
 Nuclear repulsion after empirical dispersion term =      176.3516215363 Hartrees.
 One-electron integrals computed using PRISM.
 NBasis=   414 RedAO= T EigKep=  1.13D-05  NBF=   414
 NBsUse=   414 1.00D-06 EigRej= -1.00D+00 NBFU=   414
 Initial guess from the checkpoint file:  "67-64-1.chk"
 B after Tr=     0.000000    0.000000    0.000000
         Rot=    0.999997    0.000588    0.000052    0.002214 Ang=   0.26 deg.
 ExpMin= 2.53D-02 ExpMax= 1.53D+04 ExpMxC= 5.22D+02 IAcc=3 IRadAn=         5 AccDes= 0.00D+00
 Harris functional with IExCor=  402 and IRadAn=       5 diagonalized for initial guess.
 HarFok:  IExCor=  402 AccDes= 0.00D+00 IRadAn=         5 IDoV= 1 UseB2=F ITyADJ=14
 ICtDFT=  3500011 ScaDFX=  1.000000  1.000000  1.000000  1.000000
 FoFCou: FMM=F IPFlag=           0 FMFlag=      100000 FMFlg1=           0
         NFxFlg=           0 DoJE=T BraDBF=F KetDBF=T FulRan=T
         wScrn=  0.000000 ICntrl=     500 IOpCl=  0 I1Cent=   200000004 NGrid=           0
         NMat0=    1 NMatS0=      1 NMatT0=    0 NMatD0=    1 NMtDS0=    0 NMtDT0=    0
 Petite list used in FoFCou.
 Requested convergence on RMS density matrix=1.00D-08 within 128 cycles.
 Requested convergence on MAX density matrix=1.00D-06.
 Requested convergence on             energy=1.00D-06.
 No special actions if energy rises.
 SCF Done:  E(RB3LYP) =  -269.717982251     A.U. after    8 cycles
            NFock=  8  Conv=0.58D-08     -V/T= 2.0063
 Calling FoFJK, ICntrl=      2127 FMM=F ISym2X=0 I1Cent= 0 IOpClX= 0 NMat=1 NMatS=1 NMatT=0.
 ***** Axes restored to original set *****
 -------------------------------------------------------------------
 Center     Atomic                   Forces (Hartrees/Bohr)
 Number     Number              X              Y              Z
 -------------------------------------------------------------------
      1        6          -0.000206441   -0.000527233    0.000922813
      2        8          -0.000149889    0.000708073   -0.000931816
      3        6          -0.000169454    0.000069163   -0.000499647
      4        1           0.000067257    0.000071560    0.000135047
      5        1           0.000103753    0.000027493   -0.000055014
      6        1          -0.000086328   -0.000158972    0.000101343
      7        6           0.000175335    0.000035535   -0.000206500
      8        1           0.000093559   -0.000073276    0.000079657
      9        1           0.000051687    0.000071684   -0.000018723
     10        1           0.000213545   -0.000038239   -0.000112663
     11        8          -0.000414191    0.000032282   -0.000681585
     12        1           0.000509067   -0.000249601    0.001698753
     13        1          -0.000187899    0.000031530   -0.000431665
 -------------------------------------------------------------------
 Cartesian Forces:  Max     0.001698753 RMS     0.000428560

 GradGradGradGradGradGradGradGradGradGradGradGradGradGradGradGradGradGrad
 Berny optimization.
 Using GEDIIS/GDIIS optimizer.
 FormGI is forming the generalized inverse of G from B-inverse, IUseBI=4.
 Internal  Forces:  Max     0.000629345 RMS     0.000221203
 Search for a local minimum.
 Step number   3 out of a maximum of   56
 All quantities printed in internal units (Hartrees-Bohrs-Radians)
 Mixed Optimization -- En-DIIS/RFO-DIIS
 Swapping is turned off.
 Update second derivatives using D2CorX and points    1    2    3
 DE= -6.04D-05 DEPred=-5.05D-05 R= 1.20D+00
 TightC=F SS=  1.41D+00  RLast= 7.16D-02 DXNew= 8.4853D-01 2.1479D-01
 Trust test= 1.20D+00 RLast= 7.16D-02 DXMaxT set to 5.05D-01
 ITU=  1  1  0
     Eigenvalues ---    0.00249   0.00688   0.00691   0.01012   0.01444
     Eigenvalues ---    0.04095   0.05044   0.07093   0.07244   0.07495
     Eigenvalues ---    0.07560   0.14828   0.15992   0.16000   0.16000
     Eigenvalues ---    0.16000   0.16000   0.16000   0.16174   0.23652
     Eigenvalues ---    0.25000   0.29544   0.31807   0.34101   0.34741
     Eigenvalues ---    0.34864   0.34884   0.35156   0.35458   0.37358
     Eigenvalues ---    0.53810   0.56065   0.97742
 En-DIIS/RFO-DIIS IScMMF=        0 using points:     3    2
 RFO step:  Lambda=-6.69722544D-06.
 DidBck=F Rises=F RFO-DIIS coefs:    1.18804   -0.18804
 Iteration  1 RMS(Cart)=  0.00621534 RMS(Int)=  0.00007730
 Iteration  2 RMS(Cart)=  0.00012811 RMS(Int)=  0.00000629
 Iteration  3 RMS(Cart)=  0.00000003 RMS(Int)=  0.00000629
 Variable       Old X    -DE/DX   Delta X   Delta X   Delta X     New X
                                 (Linear)    (Quad)   (Total)
    R1        2.29844  -0.00054  -0.00038  -0.00095  -0.00134   2.29710
    R2        2.85066  -0.00001  -0.00035   0.00010  -0.00026   2.85041
    R3        2.85421  -0.00053   0.00023  -0.00127  -0.00104   2.85317
    R4        3.62157  -0.00015  -0.00046  -0.00289  -0.00335   3.61822
    R5        2.06599  -0.00010   0.00011   0.00005   0.00016   2.06615
    R6        2.06286  -0.00008   0.00003   0.00005   0.00009   2.06294
    R7        2.05353  -0.00009   0.00027   0.00019   0.00045   2.05399
    R8        2.06333  -0.00014   0.00012  -0.00005   0.00007   2.06340
    R9        2.05340  -0.00008   0.00003   0.00003   0.00006   2.05346
   R10        2.06519  -0.00019   0.00013  -0.00021  -0.00008   2.06511
   R11        1.83851  -0.00063  -0.00013  -0.00089  -0.00102   1.83749
   R12        1.81593  -0.00039   0.00000  -0.00039  -0.00039   1.81554
    A1        2.13306  -0.00018  -0.00203  -0.00270  -0.00475   2.12831
    A2        2.11192   0.00000   0.00130   0.00112   0.00240   2.11432
    A3        2.03820   0.00018   0.00073   0.00161   0.00232   2.04052
    A4        2.04349   0.00018  -0.00008   0.00381   0.00373   2.04722
    A5        1.89852   0.00024   0.00020   0.00248   0.00269   1.90121
    A6        1.92471   0.00014   0.00022   0.00131   0.00152   1.92623
    A7        1.93921  -0.00031  -0.00049  -0.00256  -0.00306   1.93615
    A8        1.86233  -0.00009   0.00033   0.00014   0.00047   1.86280
    A9        1.91036   0.00005   0.00031   0.00063   0.00095   1.91131
   A10        1.92686  -0.00002  -0.00053  -0.00181  -0.00234   1.92452
   A11        1.92759   0.00000   0.00023   0.00053   0.00076   1.92835
   A12        1.92674  -0.00001  -0.00021  -0.00011  -0.00031   1.92643
   A13        1.91026  -0.00022   0.00016  -0.00145  -0.00129   1.90896
   A14        1.92292   0.00003  -0.00005   0.00014   0.00010   1.92301
   A15        1.86320   0.00011  -0.00008   0.00052   0.00044   1.86363
   A16        1.91204   0.00010  -0.00004   0.00037   0.00033   1.91237
   A17        1.83841  -0.00019  -0.00005  -0.00052  -0.00058   1.83783
   A18        2.88182   0.00058   0.00051   0.00399   0.00450   2.88632
    D1        0.01301   0.00015  -0.00076   0.00957   0.00881   0.02182
    D2       -3.12637  -0.00001   0.00145  -0.00375  -0.00229  -3.12866
    D3        1.96011  -0.00012   0.00025  -0.01069  -0.01043   1.94967
    D4       -2.28636  -0.00001   0.00089  -0.00833  -0.00743  -2.29378
    D5       -0.14396  -0.00015   0.00003  -0.01148  -0.01144  -0.15540
    D6       -1.18362   0.00003  -0.00188   0.00211   0.00022  -1.18339
    D7        0.85310   0.00014  -0.00123   0.00447   0.00323   0.85634
    D8        2.99550   0.00001  -0.00209   0.00131  -0.00079   2.99472
    D9       -2.23612   0.00006  -0.00091   0.00491   0.00401  -2.23211
   D10       -0.10523   0.00008  -0.00095   0.00537   0.00443  -0.10080
   D11        2.00067   0.00006  -0.00104   0.00484   0.00381   2.00448
   D12        0.90758  -0.00009   0.00117  -0.00772  -0.00655   0.90102
   D13        3.03847  -0.00006   0.00113  -0.00725  -0.00613   3.03233
   D14       -1.13882  -0.00009   0.00104  -0.00779  -0.00675  -1.14557
   D15        0.50018  -0.00006  -0.01128  -0.03259  -0.04387   0.45631
   D16        1.94357   0.00043   0.00512   0.04686   0.05199   1.99556
         Item               Value     Threshold  Converged?
 Maximum Force            0.000629     0.000450     NO 
 RMS     Force            0.000221     0.000300     YES
 Maximum Displacement     0.021653     0.001800     NO 
 RMS     Displacement     0.006277     0.001200     NO 
 Predicted change in Energy=-2.079414D-05
 GradGradGradGradGradGradGradGradGradGradGradGradGradGradGradGradGradGrad

                          Input orientation:                          
 ---------------------------------------------------------------------
 Center     Atomic      Atomic             Coordinates (Angstroms)
 Number     Number       Type             X           Y           Z
 ---------------------------------------------------------------------
      1          6           0       -0.732145   -0.061756   -0.002947
      2          8           0        0.074179   -0.970997   -0.030221
      3          6           0       -0.304751    1.384693   -0.020254
      4          1           0       -0.604930    1.831910   -0.971739
      5          1           0       -0.818823    1.942143    0.765051
      6          1           0        0.772043    1.472909    0.098624
      7          6           0       -2.216398   -0.335364    0.038650
      8          1           0       -2.729055    0.216734   -0.751683
      9          1           0       -2.407835   -1.400163   -0.063090
     10          1           0       -2.624253    0.020831    0.987866
     11          8           0        2.788912   -0.054520    0.037896
     12          1           0        1.929474   -0.498746   -0.059630
     13          1           0        3.291217   -0.604612    0.644620
 ---------------------------------------------------------------------
                    Distance matrix (angstroms):
                    1          2          3          4          5
     1  C    0.000000
     2  O    1.215574   0.000000
     3  C    1.508370   2.385993   0.000000
     4  H    2.130895   3.033798   1.093359   0.000000
     5  H    2.147777   3.149015   1.091662   1.753380   0.000000
     6  H    2.151301   2.544856   1.086922   1.780622   1.787501
     7  C    1.509835   2.378133   2.572248   2.883538   2.769099
     8  H    2.150770   3.128791   2.788613   2.677522   2.987725
     9  H    2.145434   2.519059   3.490017   3.810827   3.792332
    10  H    2.137430   3.049879   2.873415   3.346300   2.645877
    11  O    3.521301   2.866068   3.412546   4.012000   4.187024
    12  H    2.697849   1.914682   2.922441   3.561897   3.767118
    13  H    4.111140   3.307413   4.162977   4.871265   4.836620
                    6          7          8          9         10
     6  H    0.000000
     7  C    3.493455   0.000000
     8  H    3.815584   1.091904   0.000000
     9  H    4.288627   1.086645   1.786532   0.000000
    10  H    3.799225   1.092809   1.753679   1.780609   0.000000
    11  O    2.530709   5.013183   5.580768   5.369091   5.496406
    12  H    2.291750   4.150255   4.763690   4.429991   4.701451
    13  H    3.310656   5.547389   6.234416   5.797668   5.958337
                   11         12         13
    11  O    0.000000
    12  H    0.972359   0.000000
    13  H    0.960742   1.536723   0.000000
 Stoichiometry    C3H8O2
 Framework group  C1[X(C3H8O2)]
 Deg. of freedom    33
 Full point group                 C1      NOp   1
 Largest Abelian subgroup         C1      NOp   1
 Largest concise Abelian subgroup C1      NOp   1
                         Standard orientation:                         
 ---------------------------------------------------------------------
 Center     Atomic      Atomic             Coordinates (Angstroms)
 Number     Number       Type             X           Y           Z
 ---------------------------------------------------------------------
      1          6           0       -0.735829   -0.088489   -0.012307
      2          8           0        0.082537   -0.985415   -0.070796
      3          6           0       -0.328927    1.363949   -0.006391
      4          1           0       -0.650254    1.826168   -0.943693
      5          1           0       -0.838266    1.897887    0.798102
      6          1           0        0.748276    1.465039    0.097611
      7          6           0       -2.215292   -0.383986    0.046593
      8          1           0       -2.747970    0.176769   -0.724161
      9          1           0       -2.393476   -1.449105   -0.074110
     10          1           0       -2.613055   -0.053073    1.009149
     11          8           0        2.784993   -0.031972   -0.025795
     12          1           0        1.930389   -0.486304   -0.119156
     13          1           0        3.304401   -0.587124    0.561612
 ---------------------------------------------------------------------
 Rotational constants (GHZ):      9.1782380      2.1877061      1.8115420
 Standard basis: Aug-CC-pVTZ (5D, 7F)
 There are   475 symmetry adapted cartesian basis functions of A   symmetry.
 There are   414 symmetry adapted basis functions of A   symmetry.
   414 basis functions,   576 primitive gaussians,   475 cartesian basis functions
    21 alpha electrons       21 beta electrons
       nuclear repulsion energy       176.4015976148 Hartrees.
 NAtoms=   13 NActive=   13 NUniq=   13 SFac= 1.00D+00 NAtFMM=   60 NAOKFM=F Big=F
 Integral buffers will be    131072 words long.
 Raffenetti 2 integral format.
 Two-electron integral symmetry is turned on.
 Nuclear repulsion after empirical dispersion term =      176.3946968082 Hartrees.
 One-electron integrals computed using PRISM.
 NBasis=   414 RedAO= T EigKep=  1.13D-05  NBF=   414
 NBsUse=   414 1.00D-06 EigRej= -1.00D+00 NBFU=   414
 Initial guess from the checkpoint file:  "67-64-1.chk"
 B after Tr=     0.000000    0.000000    0.000000
         Rot=    1.000000   -0.000062    0.000056    0.000207 Ang=  -0.03 deg.
 ExpMin= 2.53D-02 ExpMax= 1.53D+04 ExpMxC= 5.22D+02 IAcc=3 IRadAn=         5 AccDes= 0.00D+00
 Harris functional with IExCor=  402 and IRadAn=       5 diagonalized for initial guess.
 HarFok:  IExCor=  402 AccDes= 0.00D+00 IRadAn=         5 IDoV= 1 UseB2=F ITyADJ=14
 ICtDFT=  3500011 ScaDFX=  1.000000  1.000000  1.000000  1.000000
 FoFCou: FMM=F IPFlag=           0 FMFlag=      100000 FMFlg1=           0
         NFxFlg=           0 DoJE=T BraDBF=F KetDBF=T FulRan=T
         wScrn=  0.000000 ICntrl=     500 IOpCl=  0 I1Cent=   200000004 NGrid=           0
         NMat0=    1 NMatS0=      1 NMatT0=    0 NMatD0=    1 NMtDS0=    0 NMtDT0=    0
 Petite list used in FoFCou.
 Requested convergence on RMS density matrix=1.00D-08 within 128 cycles.
 Requested convergence on MAX density matrix=1.00D-06.
 Requested convergence on             energy=1.00D-06.
 No special actions if energy rises.
 SCF Done:  E(RB3LYP) =  -269.718009652     A.U. after    8 cycles
            NFock=  8  Conv=0.50D-08     -V/T= 2.0063
 Calling FoFJK, ICntrl=      2127 FMM=F ISym2X=0 I1Cent= 0 IOpClX= 0 NMat=1 NMatS=1 NMatT=0.
 ***** Axes restored to original set *****
 -------------------------------------------------------------------
 Center     Atomic                   Forces (Hartrees/Bohr)
 Number     Number              X              Y              Z
 -------------------------------------------------------------------
      1        6          -0.000141979    0.000650261   -0.000764630
      2        8           0.000125714   -0.000711153   -0.000364013
      3        6          -0.000137114    0.000483876    0.000351807
      4        1           0.000064103   -0.000154185    0.000184912
      5        1          -0.000046072    0.000056673   -0.000117113
      6        1          -0.000223471   -0.000005242   -0.000120200
      7        6           0.000151841   -0.000101929    0.000273168
      8        1           0.000225447   -0.000046476    0.000116647
      9        1           0.000008914    0.000082139    0.000017234
     10        1           0.000036820   -0.000056498   -0.000109142
     11        8          -0.000105237    0.000237102   -0.000603943
     12        1           0.000030776   -0.000410994    0.001419858
     13        1           0.000010259   -0.000023575   -0.000284585
 -------------------------------------------------------------------
 Cartesian Forces:  Max     0.001419858 RMS     0.000361682

 GradGradGradGradGradGradGradGradGradGradGradGradGradGradGradGradGradGrad
 Berny optimization.
 Using GEDIIS/GDIIS optimizer.
 FormGI is forming the generalized inverse of G from B-inverse, IUseBI=4.
 Internal  Forces:  Max     0.000957521 RMS     0.000258176
 Search for a local minimum.
 Step number   4 out of a maximum of   56
 All quantities printed in internal units (Hartrees-Bohrs-Radians)
 Mixed Optimization -- En-DIIS/RFO-DIIS
 Swapping is turned off.
 Update second derivatives using D2CorX and points    1    2    3    4
 DE= -2.74D-05 DEPred=-2.08D-05 R= 1.32D+00
 TightC=F SS=  1.41D+00  RLast= 7.28D-02 DXNew= 8.4853D-01 2.1849D-01
 Trust test= 1.32D+00 RLast= 7.28D-02 DXMaxT set to 5.05D-01
 ITU=  1  1  1  0
     Eigenvalues ---    0.00157   0.00490   0.00691   0.00731   0.01993
     Eigenvalues ---    0.04076   0.05007   0.07244   0.07413   0.07509
     Eigenvalues ---    0.07609   0.14831   0.15903   0.16000   0.16000
     Eigenvalues ---    0.16000   0.16000   0.16117   0.16794   0.23343
     Eigenvalues ---    0.25047   0.30923   0.31790   0.34242   0.34819
     Eigenvalues ---    0.34862   0.34893   0.35249   0.35462   0.47952
     Eigenvalues ---    0.53915   0.56150   1.07762
 En-DIIS/RFO-DIIS IScMMF=        0 using points:     4    3    2
 RFO step:  Lambda=-6.85443922D-06.
 DidBck=F Rises=F RFO-DIIS coefs:    1.28580    0.03164   -0.31744
 Iteration  1 RMS(Cart)=  0.01207875 RMS(Int)=  0.00026736
 Iteration  2 RMS(Cart)=  0.00051447 RMS(Int)=  0.00000504
 Iteration  3 RMS(Cart)=  0.00000040 RMS(Int)=  0.00000502
 Variable       Old X    -DE/DX   Delta X   Delta X   Delta X     New X
                                 (Linear)    (Quad)   (Total)
    R1        2.29710   0.00072  -0.00103  -0.00032  -0.00135   2.29575
    R2        2.85041   0.00027  -0.00067   0.00111   0.00045   2.85085
    R3        2.85317  -0.00038   0.00009  -0.00150  -0.00142   2.85176
    R4        3.61822  -0.00013  -0.00173  -0.00441  -0.00614   3.61209
    R5        2.06615  -0.00024   0.00023  -0.00026  -0.00003   2.06612
    R6        2.06294  -0.00004   0.00008   0.00029   0.00037   2.06331
    R7        2.05399  -0.00023   0.00058   0.00000   0.00058   2.05456
    R8        2.06340  -0.00021   0.00022  -0.00023  -0.00001   2.06339
    R9        2.05346  -0.00009   0.00007   0.00009   0.00016   2.05362
   R10        2.06511  -0.00012   0.00019  -0.00005   0.00014   2.06525
   R11        1.83749  -0.00008  -0.00051  -0.00033  -0.00083   1.83666
   R12        1.81554  -0.00016  -0.00011  -0.00013  -0.00024   1.81530
    A1        2.12831   0.00096  -0.00478  -0.00030  -0.00508   2.12323
    A2        2.11432  -0.00064   0.00289  -0.00051   0.00237   2.11670
    A3        2.04052  -0.00032   0.00190   0.00084   0.00274   2.04326
    A4        2.04722   0.00028   0.00094   0.00780   0.00873   2.05596
    A5        1.90121  -0.00015   0.00111   0.00080   0.00191   1.90312
    A6        1.92623   0.00013   0.00080   0.00273   0.00353   1.92976
    A7        1.93615   0.00004  -0.00170  -0.00163  -0.00333   1.93283
    A8        1.86280  -0.00004   0.00070  -0.00022   0.00046   1.86326
    A9        1.91131  -0.00002   0.00080  -0.00006   0.00074   1.91205
   A10        1.92452   0.00003  -0.00156  -0.00156  -0.00312   1.92141
   A11        1.92835  -0.00023   0.00060  -0.00079  -0.00019   1.92816
   A12        1.92643   0.00005  -0.00044   0.00031  -0.00013   1.92629
   A13        1.90896   0.00005  -0.00011  -0.00044  -0.00055   1.90842
   A14        1.92301   0.00008  -0.00005   0.00033   0.00027   1.92329
   A15        1.86363   0.00006  -0.00001   0.00039   0.00037   1.86401
   A16        1.91237  -0.00001   0.00002   0.00021   0.00023   1.91260
   A17        1.83783   0.00002  -0.00025   0.00067   0.00042   1.83825
   A18        2.88632   0.00045   0.00215   0.00670   0.00886   2.89518
    D1        0.02182   0.00000   0.00124   0.00272   0.00396   0.02577
    D2       -3.12866   0.00014   0.00179   0.00789   0.00968  -3.11898
    D3        1.94967   0.00003  -0.00256  -0.00512  -0.00769   1.94198
    D4       -2.29378  -0.00002  -0.00062  -0.00335  -0.00396  -2.29775
    D5       -0.15540   0.00014  -0.00321  -0.00455  -0.00777  -0.16317
    D6       -1.18339  -0.00010  -0.00310  -0.01008  -0.01318  -1.19657
    D7        0.85634  -0.00015  -0.00116  -0.00831  -0.00945   0.84688
    D8        2.99472   0.00001  -0.00376  -0.00951  -0.01326   2.98146
    D9       -2.23211  -0.00007  -0.00039  -0.00381  -0.00420  -2.23632
   D10       -0.10080  -0.00009  -0.00035  -0.00372  -0.00408  -0.10488
   D11        2.00448  -0.00004  -0.00066  -0.00355  -0.00422   2.00026
   D12        0.90102   0.00006   0.00010   0.00111   0.00122   0.90225
   D13        3.03233   0.00004   0.00015   0.00120   0.00135   3.03369
   D14       -1.14557   0.00009  -0.00017   0.00137   0.00121  -1.14436
   D15        0.45631  -0.00003  -0.03158  -0.04395  -0.07553   0.38078
   D16        1.99556   0.00041   0.02351   0.08408   0.10758   2.10314
         Item               Value     Threshold  Converged?
 Maximum Force            0.000958     0.000450     NO 
 RMS     Force            0.000258     0.000300     YES
 Maximum Displacement     0.041309     0.001800     NO 
 RMS     Displacement     0.012427     0.001200     NO 
 Predicted change in Energy=-2.988431D-05
 GradGradGradGradGradGradGradGradGradGradGradGradGradGradGradGradGradGrad

                          Input orientation:                          
 ---------------------------------------------------------------------
 Center     Atomic      Atomic             Coordinates (Angstroms)
 Number     Number       Type             X           Y           Z
 ---------------------------------------------------------------------
      1          6           0       -0.735683   -0.058861   -0.004309
      2          8           0        0.075380   -0.963039   -0.027215
      3          6           0       -0.308938    1.388033   -0.021000
      4          1           0       -0.597195    1.833933   -0.976761
      5          1           0       -0.828127    1.950077    0.757912
      6          1           0        0.766867    1.473745    0.110768
      7          6           0       -2.218282   -0.337138    0.038137
      8          1           0       -2.732939    0.212979   -0.752272
      9          1           0       -2.406169   -1.402725   -0.062874
     10          1           0       -2.626306    0.018388    0.987617
     11          8           0        2.790786   -0.055733    0.042465
     12          1           0        1.929185   -0.497456   -0.042084
     13          1           0        3.309057   -0.619144    0.622760
 ---------------------------------------------------------------------
                    Distance matrix (angstroms):
                    1          2          3          4          5
     1  C    0.000000
     2  O    1.214861   0.000000
     3  C    1.508606   2.382284   0.000000
     4  H    2.132489   3.029364   1.093343   0.000000
     5  H    2.150665   3.149444   1.091859   1.753828   0.000000
     6  H    2.149368   2.536752   1.087228   1.781325   1.785971
     7  C    1.509085   2.378426   2.573968   2.893353   2.771635
     8  H    2.149971   3.129758   2.791289   2.690593   2.987721
     9  H    2.144743   2.520453   3.491198   3.818839   3.795416
    10  H    2.136431   3.048309   2.874619   3.357421   2.649082
    11  O    3.526781   2.863824   3.420055   4.010995   4.199008
    12  H    2.700985   1.911435   2.926552   3.562526   3.772689
    13  H    4.131230   3.316232   4.187251   4.882096   4.871905
                    6          7          8          9         10
     6  H    0.000000
     7  C    3.492232   0.000000
     8  H    3.818771   1.091901   0.000000
     9  H    4.286302   1.086728   1.786770   0.000000
    10  H    3.794806   1.092883   1.753981   1.780885   0.000000
    11  O    2.537759   5.016968   5.587070   5.369714   5.499426
    12  H    2.293465   4.151340   4.769118   4.428910   4.698817
    13  H    3.332425   5.565320   6.252108   5.809295   5.980644
                   11         12         13
    11  O    0.000000
    12  H    0.971918   0.000000
    13  H    0.960613   1.536513   0.000000
 Stoichiometry    C3H8O2
 Framework group  C1[X(C3H8O2)]
 Deg. of freedom    33
 Full point group                 C1      NOp   1
 Largest Abelian subgroup         C1      NOp   1
 Largest concise Abelian subgroup C1      NOp   1
                         Standard orientation:                         
 ---------------------------------------------------------------------
 Center     Atomic      Atomic             Coordinates (Angstroms)
 Number     Number       Type             X           Y           Z
[...]
 Vib (Bot)    6  0.118434D+01          0.073476          0.169184
 Vib (Bot)    7  0.446330D+00         -0.350344         -0.806696
 Vib (Bot)    8  0.431066D+00         -0.365456         -0.841494
 Vib (Bot)    9  0.332336D+00         -0.478422         -1.101608
 Vib (Bot)   10  0.278515D+00         -0.555151         -1.278283
 Vib (Bot)   11  0.254173D+00         -0.594870         -1.369738
 Vib (V=0)       0.184312D+04          3.265552          7.519212
 Vib (V=0)    1  0.610826D+01          0.785918          1.809642
 Vib (V=0)    2  0.518872D+01          0.715060          1.646488
 Vib (V=0)    3  0.322086D+01          0.507972          1.169650
 Vib (V=0)    4  0.262186D+01          0.418610          0.963884
 Vib (V=0)    5  0.212420D+01          0.327195          0.753395
 Vib (V=0)    6  0.178556D+01          0.251774          0.579731
 Vib (V=0)    7  0.117023D+01          0.068272          0.157202
 Vib (V=0)    8  0.116017D+01          0.064520          0.148562
 Vib (V=0)    9  0.110037D+01          0.041540          0.095649
 Vib (V=0)   10  0.107234D+01          0.030332          0.069841
 Vib (V=0)   11  0.106090D+01          0.025673          0.059114
 Electronic      0.100000D+01          0.000000          0.000000
 Translational   0.260690D+08          7.416125         17.076259
 Rotational      0.142336D+06          5.153316         11.865948
 ***** Axes restored to original set *****
 -------------------------------------------------------------------
 Center     Atomic                   Forces (Hartrees/Bohr)
 Number     Number              X              Y              Z
 -------------------------------------------------------------------
      1        6          -0.000001401    0.000002430   -0.000002434
      2        8           0.000008857    0.000000756    0.000000307
      3        6           0.000000163    0.000000610    0.000004063
      4        1          -0.000002493    0.000001620    0.000003856
      5        1          -0.000002521   -0.000002872    0.000003161
      6        1          -0.000001996    0.000000491    0.000002124
      7        6          -0.000000392   -0.000002735   -0.000002124
      8        1           0.000000667   -0.000001374    0.000000154
      9        1           0.000002311   -0.000001753   -0.000003499
     10        1           0.000000338   -0.000004826   -0.000000954
     11        8           0.000002388    0.000003427   -0.000001315
     12        1          -0.000007546   -0.000000294   -0.000002217
     13        1           0.000001626    0.000004520   -0.000001122
 -------------------------------------------------------------------
 Cartesian Forces:  Max     0.000008857 RMS     0.000002917
 FormGI is forming the generalized inverse of G from B-inverse, IUseBI=4.

 GradGradGradGradGradGradGradGradGradGradGradGradGradGradGradGradGradGrad
 Berny optimization.
 Internal  Forces:  Max     0.000006095 RMS     0.000001295
 Search for a local minimum.
 Step number   1 out of a maximum of    2
 All quantities printed in internal units (Hartrees-Bohrs-Radians)
 Second derivative matrix not updated -- analytic derivatives used.
 ITU=  0
     Eigenvalues ---    0.00013   0.00049   0.00105   0.00137   0.00255
     Eigenvalues ---    0.01036   0.01914   0.02451   0.05223   0.05258
     Eigenvalues ---    0.05412   0.05660   0.06798   0.12080   0.12262
     Eigenvalues ---    0.12497   0.13149   0.13858   0.14102   0.15646
     Eigenvalues ---    0.21224   0.22861   0.30126   0.32562   0.33030
     Eigenvalues ---    0.33226   0.33837   0.34369   0.34811   0.35882
     Eigenvalues ---    0.49471   0.53842   0.82894
 Angle between quadratic step and forces=  69.80 degrees.
 Linear search not attempted -- first point.
 Iteration  1 RMS(Cart)=  0.00099158 RMS(Int)=  0.00000071
 Iteration  2 RMS(Cart)=  0.00000077 RMS(Int)=  0.00000000
 Variable       Old X    -DE/DX   Delta X   Delta X   Delta X     New X
                                 (Linear)    (Quad)   (Total)
    R1        2.29779   0.00000   0.00000   0.00001   0.00001   2.29779
    R2        2.85076   0.00000   0.00000   0.00000   0.00000   2.85076
    R3        2.85251   0.00000   0.00000   0.00000   0.00000   2.85252
    R4        3.58324  -0.00001   0.00000  -0.00054  -0.00054   3.58270
    R5        2.06517   0.00000   0.00000  -0.00001  -0.00001   2.06516
    R6        2.06309   0.00000   0.00000   0.00001   0.00001   2.06310
    R7        2.05257   0.00000   0.00000   0.00000   0.00000   2.05257
    R8        2.06290   0.00000   0.00000   0.00001   0.00001   2.06291
    R9        2.05315   0.00000   0.00000   0.00000   0.00000   2.05315
   R10        2.06457   0.00000   0.00000  -0.00001  -0.00001   2.06456
   R11        1.83824   0.00000   0.00000   0.00002   0.00002   1.83826
   R12        1.81483   0.00000   0.00000   0.00000   0.00000   1.81483
    A1        2.13310   0.00000   0.00000   0.00000   0.00000   2.13310
    A2        2.11156   0.00000   0.00000  -0.00001  -0.00001   2.11155
    A3        2.03852   0.00000   0.00000   0.00001   0.00001   2.03853
    A4        2.04994   0.00000   0.00000   0.00007   0.00007   2.05002
    A5        1.90251   0.00000   0.00000   0.00012   0.00012   1.90263
    A6        1.92236   0.00000   0.00000  -0.00012  -0.00012   1.92224
    A7        1.94017   0.00000   0.00000  -0.00001  -0.00001   1.94016
    A8        1.86198   0.00000   0.00000  -0.00002  -0.00002   1.86197
    A9        1.91092   0.00000   0.00000   0.00008   0.00008   1.91099
   A10        1.92412   0.00000   0.00000  -0.00005  -0.00005   1.92407
   A11        1.92690   0.00000   0.00000  -0.00008  -0.00008   1.92682
   A12        1.92652   0.00000   0.00000  -0.00001  -0.00001   1.92651
   A13        1.91004   0.00000   0.00000   0.00010   0.00010   1.91014
   A14        1.92269   0.00000   0.00000  -0.00005  -0.00005   1.92264
   A15        1.86381   0.00000   0.00000  -0.00001  -0.00001   1.86380
   A16        1.91283   0.00000   0.00000   0.00005   0.00005   1.91288
   A17        1.84754   0.00000   0.00000   0.00002   0.00002   1.84755
   A18        2.85854   0.00000   0.00000   0.00012   0.00012   2.85866
    D1        0.01594   0.00000   0.00000  -0.00132  -0.00132   0.01462
    D2       -3.12765   0.00000   0.00000  -0.00128  -0.00128  -3.12893
    D3        2.00362   0.00000   0.00000   0.00140   0.00140   2.00501
    D4       -2.24227   0.00000   0.00000   0.00138   0.00138  -2.24089
    D5       -0.10434   0.00000   0.00000   0.00123   0.00123  -0.10311
    D6       -1.13606   0.00000   0.00000   0.00136   0.00136  -1.13470
    D7        0.90124   0.00000   0.00000   0.00134   0.00134   0.90258
    D8        3.03917   0.00000   0.00000   0.00119   0.00119   3.04036
    D9       -2.21994   0.00000   0.00000   0.00100   0.00100  -2.21894
   D10       -0.08996   0.00000   0.00000   0.00088   0.00088  -0.08908
   D11        2.01665   0.00000   0.00000   0.00100   0.00100   2.01764
   D12        0.91976   0.00000   0.00000   0.00104   0.00104   0.92080
   D13        3.04974   0.00000   0.00000   0.00092   0.00092   3.05066
   D14       -1.12684   0.00000   0.00000   0.00104   0.00104  -1.12581
   D15        0.01293   0.00000   0.00000  -0.00103  -0.00103   0.01190
   D16        3.05704   0.00000   0.00000  -0.00011  -0.00011   3.05693
         Item               Value     Threshold  Converged?
 Maximum Force            0.000006     0.000450     YES
 RMS     Force            0.000001     0.000300     YES
 Maximum Displacement     0.002499     0.001800     NO 
 RMS     Displacement     0.000992     0.001200     YES
 Predicted change in Energy=-6.953251D-09
 GradGradGradGradGradGradGradGradGradGradGradGradGradGradGradGradGradGrad

 1\1\GINC-NODE104\Freq\RB3LYP\Aug-CC-pVTZ\C3H8O2\KAESER\30-Sep-2021\0\\
 #N Geom=AllCheck Guess=TCheck SCRF=Check GenChk RB3LYP/Aug-CC-pVTZ Fre
 q\\Title Card Required\\0,1\C,-0.7373160606,-0.0574864685,0.0380494207
 \O,0.0679043479,-0.9670509271,0.0911063381\C,-0.3141002022,1.389855433
 3,-0.0047874245\H,-0.6072365519,1.8180571944,-0.966564983\H,-0.8400570
 18,1.9582831288,0.7647314052\H,0.7599810076,1.4883036333,0.1234056267\
 C,-2.2210131781,-0.3338334225,0.009406513\H,-2.6867019143,0.1753197508
 ,-0.836511867\H,-2.4057277214,-1.4028980388,-0.0491089362\H,-2.6833729
 855,0.0689670886,0.9136095469\O,2.7456097054,-0.014132875,0.167036057\
 H,1.9061339285,-0.5051378924,0.1458452565\H,3.4335326426,-0.675185605,
 0.2769250466\\Version=ES64L-G09RevD.01\State=1-A\HF=-269.7182603\RMSD=
 1.829e-09\RMSF=2.917e-06\ZeroPoint=0.1074838\Thermal=0.1163004\Dipole=
 -1.1743952,0.2492925,-0.0126206\DipoleDeriv=1.2687917,-0.0888246,0.023
 4338,-0.2192252,1.1523053,-0.0593191,0.0352455,-0.0448219,0.1112169,-1
 .1428336,0.2681063,-0.0367572,0.3222132,-0.8785558,0.0322144,-0.040001
 8,0.0267293,-0.290354,-0.070324,-0.1142929,-0.0050233,-0.0649629,-0.38
 18723,0.0332085,-0.0070308,0.0511134,0.0858472,0.0609178,-0.0108652,-0
 .055747,0.0106471,0.0520949,0.0145789,-0.0550994,0.0515005,-0.0355599,
 0.0212943,0.0190328,0.0750643,0.0283224,0.0376109,-0.0258375,0.0700433
 ,-0.0770918,0.0034908,0.0273748,-0.048769,-0.0083039,-0.0270519,0.0487
 98,0.001974,-0.0106932,-0.0075788,0.0762212,-0.4317427,-0.0527825,0.00
 26969,-0.0416858,0.0062369,0.0008067,0.0226136,-0.0010748,0.0717676,0.
 0368833,0.0124284,-0.0177017,0.0011932,0.0343653,0.0759236,-0.0700085,
 0.0689005,-0.0133329,0.0357599,-0.0030839,-0.0012521,-0.0586071,-0.069
 9358,-0.0079314,-0.0090656,-0.0074376,0.0816532,0.0381971,0.0101412,0.
 0154718,-0.0057978,0.0518799,-0.0673126,0.0562199,-0.059548,-0.0226964
 ,-0.9031785,0.010268,-0.0070135,-0.1072221,-0.3863695,-0.028178,-0.001
 7638,-0.0228372,-0.6326041,0.8085174,-0.0545157,0.0252383,0.0828404,0.
 1731701,0.0099782,0.0197582,0.004581,0.2455431,0.2503426,0.053157,-0.0
 101061,0.0793365,0.1602721,0.0198943,-0.0102175,0.0175656,0.3188074\Po
 lar=62.2522286,-1.9046025,54.3222421,0.6101136,-0.6329188,42.2922295\P
 G=C01 [X(C3H8O2)]\NImag=0\\0.68381721,-0.20563388,0.73143583,0.0191489
 1,-0.02207385,0.24939392,-0.37066498,0.29008861,-0.01841586,0.42013650
 ,0.29168893,-0.44042610,0.02030399,-0.34129940,0.49227510,-0.01866664,
 0.02011365,-0.07173700,0.02307327,-0.02478333,0.02886776,-0.11232814,-
 0.04683343,0.00173958,0.01238749,0.03558891,-0.00301280,0.60219753,-0.
 04471522,-0.15634163,-0.00015256,0.01468767,-0.05191767,0.00388948,-0.
 02287495,0.45960261,0.00065967,-0.00192402,-0.08939810,-0.00192979,0.0
 0409755,0.02670138,0.00642632,0.00755773,0.51239076,0.00135846,0.00100
 739,0.00983040,0.00124519,-0.00072219,-0.00062904,-0.06384590,0.022648
 49,-0.06254879,0.06447968,0.01194254,-0.01157430,0.03195601,-0.0013761
 2,-0.00524392,-0.00478536,0.02409715,-0.08170672,0.09493885,-0.0281648
 4,0.08968535,-0.00054120,0.00046333,-0.00006571,0.00124446,-0.00085974
 ,-0.00074038,-0.06282094,0.09044490,-0.24326310,0.06858146,-0.09961933
 ,0.26664082,0.00396098,-0.00044339,-0.00988037,0.00162408,-0.00149809,
 0.00177488,-0.10921620,0.06148787,0.08992389,0.00354686,-0.00491754,-0
 .00606685,0.11255798,0.01994520,-0.01430575,-0.02530031,-0.00224459,-0
 .00666601,0.00401522,0.06217734,-0.11368675,-0.10052662,-0.00668880,0.
 00766403,0.00938063,-0.07013122,0.12462863,-0.00100142,0.00265837,0.00
 129956,-0.00037756,0.00119218,-0.00092143,0.08922742,-0.09840005,-0.17
 108694,0.01381846,-0.01573202,-0.02092908,-0.09933870,0.10634159,0.187
 64880,-0.00936834,-0.00085220,-0.00067627,0.00199817,0.00174307,0.0003
 4086,-0.31787297,-0.02434684,-0.03253898,-0.00485552,-0.00034466,-0.00
 024752,-0.01064942,-0.00126665,-0.00198726,0.34104686,-0.03695094,-0.0
 0164903,-0.00454094,0.00236978,0.00358899,0.00030178,-0.01877295,-0.05
 150401,-0.00332288,0.01280589,0.00075081,0.00009142,0.01626017,0.00147
 466,0.00394616,0.02463219,0.05632578,0.00198028,0.00098773,-0.00140070
 ,0.00028264,-0.00055674,-0.00109178,-0.03231877,-0.00395050,-0.0521991
 9,-0.02787687,-0.00346689,-0.00210606,0.02286697,0.00343279,0.00376259
 ,0.03530521,0.00294525,0.05083439,-0.16410542,-0.03972516,-0.00164040,
 -0.04931462,0.02112894,-0.00224701,-0.00705074,-0.00656994,0.00009861,
 -0.00121744,-0.00031510,-0.00034287,-0.00119030,-0.00066905,-0.0000114
 1,0.00102012,0.00003455,-0.00013768,0.45585295,-0.04285588,-0.10111758
 ,0.00010842,0.04372926,0.00593479,0.00072157,-0.03266096,-0.00313772,-
 0.00120187,0.00037401,0.00032715,0.00045043,0.00021508,0.00094554,0.00
 006672,-0.00167194,-0.00621886,0.00078618,-0.01175906,0.60114493,-0.00
 318043,-0.00060171,-0.08898770,-0.00335821,0.00039792,0.02481124,-0.00
 012750,0.00109680,0.01710531,-0.00113670,-0.00287552,-0.00051455,0.001
 46795,0.00217118,-0.00034132,-0.00013117,0.00050240,0.00109434,0.00404
 478,-0.00113992,0.51451851,-0.00989337,0.01901507,-0.02826225,-0.00760
 156,-0.00100963,0.00355169,0.00079827,-0.00070790,0.00244068,-0.000664
 19,-0.00125028,0.00015901,0.00006484,0.00023325,-0.00001911,0.00019910
 ,0.00037423,0.00043056,-0.09091348,0.04798107,-0.09105418,0.09884422,0
 .00190430,0.00149851,-0.00730125,-0.00057128,0.00184191,0.00100216,-0.
 00001614,-0.00101303,0.00130130,-0.00101460,-0.00027756,-0.00031087,-0
 .00011883,0.00004439,-0.00020120,0.00021778,0.00015171,-0.00015060,0.0
 4716544,-0.10448609,0.09615724,-0.05540915,0.10804140,0.00161316,0.000
 00128,0.00037036,0.00068134,-0.00080530,-0.00059113,0.00007587,-0.0000
 0800,-0.00031292,0.00010451,-0.00000186,0.00058695,-0.00015925,0.00001
 772,-0.00016878,-0.00003236,-0.00019626,0.00020740,-0.08855701,0.09555
 200,-0.19949279,0.09573394,-0.10565247,0.21823027,-0.00562990,-0.03763
 492,-0.00190283,0.00401553,0.00206568,0.00042858,-0.00644404,0.0008648
 9,-0.00013995,0.00004190,0.00014587,0.00016938,0.00023885,0.00034782,-
 0.00019394,-0.00034458,-0.00189250,0.00018677,-0.05432210,-0.03992603,
 -0.00314983,0.00206086,0.01350667,0.00256848,0.05844519,0.00016735,-0.
 00796169,-0.00001807,0.00125816,0.00270722,0.00011730,-0.00170237,0.00
 120915,-0.00024507,0.00019567,0.00016052,0.00000854,0.00025840,0.00029
 763,0.00003212,-0.00001362,-0.00036917,0.00006221,-0.04513551,-0.31282
 090,-0.01460805,-0.00216677,-0.01097564,-0.00152896,0.04879130,0.33630
 582,0.00088003,-0.00031494,-0.00133444,-0.00024017,0.00028133,-0.00115
 732,0.00036195,-0.00016526,0.00109150,-0.00021545,-0.00047809,0.000291
 78,-0.00013587,0.00046165,0.00016634,-0.00002421,0.00010292,0.00057250
 ,-0.00339925,-0.01431135,-0.04877759,0.00561149,0.02446298,0.00272979,
 0.00286603,0.01601401,0.04665634,-0.01164672,0.01511897,0.03047512,-0.
 00556445,-0.00107059,-0.00454474,0.00046197,-0.00063219,-0.00274761,0.
 00026227,0.00056811,-0.00009618,-0.00039254,-0.00123324,-0.00001440,0.
 00017369,0.00005918,-0.00052395,-0.08984263,0.03757042,0.09662758,0.00
 677600,-0.00571331,-0.01211157,0.00212312,-0.00155835,-0.00571565,0.09
 736682,0.00169318,0.00055886,0.00689625,-0.00013375,0.00148022,-0.0003
 2459,0.00029970,-0.00126927,-0.00068751,-0.00036557,0.00022863,-0.0000
 2788,-0.00101464,-0.00039483,0.00008974,0.00015966,0.00000147,-0.00013
 599,0.03579209,-0.08052524,-0.08113760,-0.00708060,0.00515791,0.012629
 80,0.01372053,-0.00857274,-0.02605235,-0.04311717,0.08332444,-0.000623
 98,0.00044882,0.00150963,-0.00086975,0.00101158,-0.00100870,0.00045910
 ,-0.00034980,-0.00060242,-0.00000325,-0.00006390,0.00008261,-0.0003451
 4,0.00014153,0.00056702,0.00001294,0.00020528,0.00025216,0.09217611,-0
 .08099815,-0.22034348,0.01123424,-0.00933553,-0.02153949,-0.00083156,0
 .00016407,-0.00023796,-0.10118174,0.08876681,0.24135491,0.00362526,-0.
 00656325,0.00030402,-0.01612455,-0.00007732,-0.00080588,0.00013328,0.0
 0171545,0.00003293,-0.00026530,0.00011920,-0.00012148,-0.00043257,0.00
 012061,0.00004957,-0.00122916,-0.00003580,-0.00010288,-0.00143564,0.00
 109172,0.00003671,-0.00038770,-0.00000250,-0.00006645,0.00013331,-0.00
 003457,-0.00000991,-0.00035314,-0.00000664,0.00002338,0.65097827,-0.00
 043585,-0.00440990,0.00012319,-0.00334921,0.00545178,-0.00023897,-0.00
 074748,0.00000789,-0.00023371,0.00029749,0.00014624,0.00005433,0.00041
 288,0.00018531,0.00006211,0.00127290,-0.00031802,0.00008127,-0.0003927
 5,0.00088204,-0.00004360,-0.00024449,-0.00003683,-0.00004219,0.0001965
 7,0.00007694,-0.00000465,-0.00019877,-0.00002663,0.00002145,-0.0453779
 1,0.43498832,0.00020929,-0.00014506,-0.00029561,-0.00083364,-0.0001323
 9,0.00375213,-0.00017406,0.00012378,0.00050018,0.00028925,-0.00009233,
 0.00005855,-0.00028318,0.00005707,0.00000482,0.00005276,-0.00004926,-0
 .00061639,-0.00005183,0.00002302,-0.00061515,-0.00008700,-0.00004263,0
 .00002011,0.00000244,-0.00000345,-0.00003192,0.00006539,0.00003687,0.0
 0002760,0.05289839,-0.04068125,0.01202418,-0.00905180,0.01241059,-0.00
 071552,0.00886613,-0.00518348,0.00066064,0.00025115,-0.00166391,0.0002
 8283,-0.00005025,-0.00048833,0.00005291,-0.00009099,-0.00055220,-0.000
 10700,0.00048954,0.00097913,-0.00006134,0.00245389,-0.00207658,-0.0000
 2899,0.00070798,0.00003652,0.00014296,-0.00030726,-0.00005705,0.000022
 15,0.00062868,0.00003778,-0.00005028,-0.34981399,-0.15922064,-0.012307
 83,0.37225648,0.00266954,0.00513460,-0.00005704,-0.00105825,-0.0085606
 2,-0.00000988,0.00161019,-0.00029034,0.00032828,-0.00045554,-0.0001785
 1,-0.00009168,-0.00063736,-0.00021317,-0.00007409,0.00062233,-0.002320
 66,-0.00009372,0.00056323,-0.00109633,0.00008903,0.00030217,0.00005355
 ,0.00004433,-0.00021649,-0.00007670,0.00000607,0.00023130,0.00003836,-
 0.00001700,-0.21398159,-0.16419304,-0.00273708,0.17523386,0.15875944,-
 0.00044075,0.00040737,0.00063521,0.00066963,-0.00015293,-0.00699850,0.
 00008453,-0.00005557,-0.00127204,-0.00029114,0.00021243,-0.00003996,0.
 00019580,-0.00016619,0.00000591,0.00002699,-0.00008583,0.00098726,0.00
 005069,-0.00005828,0.00159272,0.00027409,0.00005600,-0.00003380,-0.000
 00196,0.00000536,0.00001787,-0.00025252,-0.00003910,-0.00005533,-0.007
 70055,0.00147017,-0.00804929,0.01242821,0.00106749,0.01370208,-0.00007
 323,0.00004558,-0.00000453,-0.00100295,-0.00135483,0.00007618,0.000528
 30,0.00010657,0.00004018,-0.00003577,-0.00001601,0.00002981,-0.0000215
 8,-0.00003848,-0.00004465,-0.00060749,0.00013706,-0.00003094,0.0000654
 0,-0.00001112,-0.00001000,0.00000904,0.00001509,0.00000638,-0.00001089
 ,-0.00000266,-0.00000113,0.00000692,0.00001544,-0.00000007,-0.28482808
 ,0.20778728,-0.03977997,-0.02633958,0.03511660,-0.00504301,0.31230991,
 0.00058072,-0.00084182,0.00005617,-0.00210088,-0.00046567,-0.00001901,
 -0.00016500,0.00004748,-0.00008203,0.00008261,0.00001827,0.00001592,0.
 00012666,0.00002632,0.00001838,-0.00015203,0.00008632,0.00005899,-0.00
 011770,0.00016826,-0.00000816,-0.00003698,-0.00000023,-0.00001011,0.00
 003061,0.00001956,-0.00000232,-0.00002437,-0.00000120,0.00000484,0.263
 03261,-0.27275408,0.04364271,-0.01945570,0.01294342,-0.00266090,-0.241
 80054,0.26075337,-0.00003692,-0.00002098,0.00001057,0.00007365,0.00000
 589,0.00011375,0.00007930,-0.00003093,0.00034558,0.00007715,0.00000800
 ,-0.00000187,-0.00002013,-0.00002624,-0.00000750,-0.00010099,0.0000999
 6,-0.00029652,0.00001727,0.00000121,-0.00004953,-0.00001317,0.00001488
 ,-0.00000597,-0.00000159,-0.00000001,0.00001310,0.00002026,-0.00001445
 ,-0.00000654,-0.04453784,0.03943186,-0.00677922,-0.00031874,0.00154530
 ,-0.00049213,0.04476174,-0.04101448,0.00715626\\0.00000140,-0.00000243
 ,0.00000243,-0.00000886,-0.00000076,-0.00000031,-0.00000016,-0.0000006
 1,-0.00000406,0.00000249,-0.00000162,-0.00000386,0.00000252,0.00000287
 ,-0.00000316,0.00000200,-0.00000049,-0.00000212,0.00000039,0.00000274,
 0.00000212,-0.00000067,0.00000137,-0.00000015,-0.00000231,0.00000175,0
 .00000350,-0.00000034,0.00000483,0.00000095,-0.00000239,-0.00000343,0.
 00000132,0.00000755,0.00000029,0.00000222,-0.00000163,-0.00000452,0.00
 000112\\\@


 MY GROUP MEETINGS AREN'T VERY STRUCTURED.
     -- PROF. M. S. GORDON, OCT. 5, 1984
 Job cpu time:       0 days  2 hours 49 minutes 45.1 seconds.
 File lengths (MBytes):  RWF=    169 Int=      0 D2E=      0 Chk=     14 Scr=      1
 Normal termination of Gaussian 09 at Thu Sep 30 20:44:27 2021.
