 Entering Gaussian System, Link 0=/opt/cluster/programs/g09/g09_d.01/g09//g09
 Input=/home/kaeser/nnprojects/hydra_challenge/b3lypd3/98-86-2.com
 Output=/scratch/kaeser/98-86-2/98-86-2.out
 Initial command:
 /opt/cluster/programs/g09/g09_d.01/g09/l1.exe "/scratch/kaeser/98-86-2/Gau-193395.inp" -scrdir="/scratch/kaeser/98-86-2/"
 Entering Link 1 = /opt/cluster/programs/g09/g09_d.01/g09/l1.exe PID=    193399.
  
 Copyright (c) 1988,1990,1992,1993,1995,1998,2003,2009,2013,
            Gaussian, Inc.  All Rights Reserved.
  
 This is part of the Gaussian(R) 09 program.  It is based on
 the Gaussian(R) 03 system (copyright 2003, Gaussian, Inc.),
 the Gaussian(R) 98 system (copyright 1998, Gaussian, Inc.),
 the Gaussian(R) 94 system (copyright 1995, Gaussian, Inc.),
 the Gaussian 92(TM) system (copyright 1992, Gaussian, Inc.),
 the Gaussian 90(TM) system (copyright 1990, Gaussian, Inc.),
 the Gaussian 88(TM) system (copyright 1988, Gaussian, Inc.),
 the Gaussian 86(TM) system (copyright 1986, Carnegie Mellon
 University), and the Gaussian 82(TM) system (copyright 1983,
 Carnegie Mellon University). Gaussian is a federally registered
 trademark of Gaussian, Inc.
  
 This software contains proprietary and confidential information,
 including trade secrets, belonging to Gaussian, Inc.
  
 This software is provided under written license and may be
 used, copied, transmitted, or stored only in accord with that
 written license.
  
 The following legend is applicable only to US Government
 contracts under FAR:
  
                    RESTRICTED RIGHTS LEGEND
  
 Use, reproduction and disclosure by the US Government is
 subject to restrictions as set forth in subparagraphs (a)
 and (c) of the Commercial Computer Software - Restricted
 Rights clause in FAR 52.227-19.
  
 Gaussian, Inc.
 340 Quinnipiac St., Bldg. 40, Wallingford CT 06492
  
  
 ---------------------------------------------------------------
 Warning -- This program may not be used in any manner that
 competes with the business of Gaussian, Inc. or will provide
 assistance to any competitor of Gaussian, Inc.  The licensee
 of this program is prohibited from giving any competitor of
 Gaussian, Inc. access to this program.  By using this program,
 the user acknowledges that Gaussian, Inc. is engaged in the
 business of creating and licensing software in the field of
 computational chemistry and represents and warrants to the
 licensee that it is not a competitor of Gaussian, Inc. and that
 it will not use this program in any manner prohibited above.
 ---------------------------------------------------------------
  

 Cite this work as:
 Gaussian 09, Revision D.01,
 M. J. Frisch, G. W. Trucks, H. B. Schlegel, G. E. Scuseria, 
 M. A. Robb, J. R. Cheeseman, G. Scalmani, V. Barone, B. Mennucci, 
 G. A. Petersson, H. Nakatsuji, M. Caricato, X. Li, H. P. Hratchian, 
 A. F. Izmaylov, J. Bloino, G. Zheng, J. L. Sonnenberg, M. Hada, 
 M. Ehara, K. Toyota, R. Fukuda, J. Hasegawa, M. Ishida, T. Nakajima, 
 Y. Honda, O. Kitao, H. Nakai, T. Vreven, J. A. Montgomery, Jr., 
 J. E. Peralta, F. Ogliaro, M. Bearpark, J. J. Heyd, E. Brothers, 
 K. N. Kudin, V. N. Staroverov, T. Keith, R. Kobayashi, J. Normand, 
 K. Raghavachari, A. Rendell, J. C. Burant, S. S. Iyengar, J. Tomasi, 
 M. Cossi, N. Rega, J. M. Millam, M. Klene, J. E. Knox, J. B. Cross, 
 V. Bakken, C. Adamo, J. Jaramillo, R. Gomperts, R. E. Stratmann, 
 O. Yazyev, A. J. Austin, R. Cammi, C. Pomelli, J. W. Ochterski, 
 R. L. Martin, K. Morokuma, V. G. Zakrzewski, G. A. Voth, 
 P. Salvador, J. J. Dannenberg, S. Dapprich, A. D. Daniels, 
 O. Farkas, J. B. Foresman, J. V. Ortiz, J. Cioslowski, 
 and D. J. Fox, Gaussian, Inc., Wallingford CT, 2013.
 
 ******************************************
 Gaussian 09:  ES64L-G09RevD.01 24-Apr-2013
                30-Sep-2021 
 ******************************************
 %chk=98-86-2.chk
 %mem=5GB
 %nprocshared=4
 Will use up to    4 processors via shared memory.
 ----------------------------------------------------------------------
 # opt freq b3lyp/aug-cc-pvtz EmpiricalDispersion=GD3 geom=connectivity
 ----------------------------------------------------------------------
 1/14=-1,18=20,19=15,26=3,38=1,57=2/1,3;
 2/9=110,12=2,17=6,18=5,40=1/2;
 3/5=16,6=1,7=10,11=2,16=1,25=1,30=1,71=1,74=-5,124=31/1,2,3;
 4//1;
 5/5=2,38=5/2;
 6/7=2,8=2,9=2,10=2,28=1/1;
 7//1,2,3,16;
 1/14=-1,18=20,19=15,26=3/3(2);
 2/9=110/2;
 99//99;
 2/9=110/2;
 3/5=16,6=1,7=10,11=2,16=1,25=1,30=1,71=1,74=-5,124=31/1,2,3;
 4/5=5,16=3,69=1/1;
 5/5=2,38=5/2;
 7//1,2,3,16;
 1/14=-1,18=20,19=15,26=3/3(-5);
 2/9=110/2;
 6/7=2,8=2,9=2,10=2,19=2,28=1/1;
 99/9=1/99;
 -------------------
 Title Card Required
 -------------------
 Symbolic Z-matrix:
 Charge =  0 Multiplicity = 1
 C                     2.65688   1.0694    0.00865 
 C                     1.27298   1.1786    0.00515 
 C                     0.47609   0.033    -0.00054 
 C                     1.08512  -1.22415  -0.00312 
 C                     2.4655   -1.33219   0.00078 
 C                     3.2538   -0.18493   0.00676 
 H                     3.26699   1.95944   0.01257 
 H                     0.81824   2.15622   0.00588 
 H                     0.45556  -2.09968  -0.00909 
 H                     2.93012  -2.30621  -0.00143 
 H                     4.32993  -0.26959   0.00944 
 C                    -1.01133   0.10714  -0.00604 
 O                    -1.67511  -0.91778  -0.01472 
 C                    -1.67156   1.46133  -0.0047 
 H                    -1.35039   2.03513   0.86349 
 H                    -1.37323   2.02173  -0.88985 
 H                    -2.74877   1.33872   0.00767 
 O                    -4.46685  -0.35493  -0.07652 
 H                    -3.56284  -0.69975  -0.09829 
 H                    -4.79493  -0.60363   0.78787 
 
 Add virtual bond connecting atoms H19        and O13        Dist= 3.59D+00.

 GradGradGradGradGradGradGradGradGradGradGradGradGradGradGradGradGradGrad
 Berny optimization.
 Initialization pass.
                           ----------------------------
                           !    Initial Parameters    !
                           ! (Angstroms and Degrees)  !
 --------------------------                            --------------------------
 ! Name  Definition              Value          Derivative Info.                !
 --------------------------------------------------------------------------------
 ! R1    R(1,2)                  1.3882         estimate D2E/DX2                !
 ! R2    R(1,6)                  1.3891         estimate D2E/DX2                !
 ! R3    R(1,7)                  1.0791         estimate D2E/DX2                !
 ! R4    R(2,3)                  1.3955         estimate D2E/DX2                !
 ! R5    R(2,8)                  1.0782         estimate D2E/DX2                !
 ! R6    R(3,4)                  1.3969         estimate D2E/DX2                !
 ! R7    R(3,12)                 1.4893         estimate D2E/DX2                !
 ! R8    R(4,5)                  1.3846         estimate D2E/DX2                !
 ! R9    R(4,9)                  1.0784         estimate D2E/DX2                !
 ! R10   R(5,6)                  1.392          estimate D2E/DX2                !
 ! R11   R(5,10)                 1.0792         estimate D2E/DX2                !
 ! R12   R(6,11)                 1.0795         estimate D2E/DX2                !
 ! R13   R(12,13)                1.2211         estimate D2E/DX2                !
 ! R14   R(12,14)                1.5066         estimate D2E/DX2                !
 ! R15   R(13,19)                1.9021         estimate D2E/DX2                !
 ! R16   R(14,15)                1.0891         estimate D2E/DX2                !
 ! R17   R(14,16)                1.0893         estimate D2E/DX2                !
 ! R18   R(14,17)                1.0842         estimate D2E/DX2                !
 ! R19   R(18,19)                0.9678         estimate D2E/DX2                !
 ! R20   R(18,20)                0.9574         estimate D2E/DX2                !
 ! A1    A(2,1,6)              119.9607         estimate D2E/DX2                !
 ! A2    A(2,1,7)              119.9182         estimate D2E/DX2                !
 ! A3    A(6,1,7)              120.1211         estimate D2E/DX2                !
 ! A4    A(1,2,3)              120.3113         estimate D2E/DX2                !
 ! A5    A(1,2,8)              119.4571         estimate D2E/DX2                !
 ! A6    A(3,2,8)              120.2316         estimate D2E/DX2                !
 ! A7    A(2,3,4)              119.3294         estimate D2E/DX2                !
 ! A8    A(2,3,12)             121.9698         estimate D2E/DX2                !
 ! A9    A(4,3,12)             118.7007         estimate D2E/DX2                !
 ! A10   A(3,4,5)              120.3227         estimate D2E/DX2                !
 ! A11   A(3,4,9)              118.4342         estimate D2E/DX2                !
 ! A12   A(5,4,9)              121.2431         estimate D2E/DX2                !
 ! A13   A(4,5,6)              120.0186         estimate D2E/DX2                !
 ! A14   A(4,5,10)             119.9764         estimate D2E/DX2                !
 ! A15   A(6,5,10)             120.005          estimate D2E/DX2                !
 ! A16   A(1,6,5)              120.0573         estimate D2E/DX2                !
 ! A17   A(1,6,11)             119.9469         estimate D2E/DX2                !
 ! A18   A(5,6,11)             119.9959         estimate D2E/DX2                !
 ! A19   A(3,12,13)            120.0762         estimate D2E/DX2                !
 ! A20   A(3,12,14)            118.8446         estimate D2E/DX2                !
 ! A21   A(13,12,14)           121.079          estimate D2E/DX2                !
 ! A22   A(12,13,19)           116.3328         estimate D2E/DX2                !
 ! A23   A(12,14,15)           110.1844         estimate D2E/DX2                !
 ! A24   A(12,14,16)           109.9796         estimate D2E/DX2                !
 ! A25   A(12,14,17)           109.4973         estimate D2E/DX2                !
 ! A26   A(15,14,16)           107.2147         estimate D2E/DX2                !
 ! A27   A(15,14,17)           110.0884         estimate D2E/DX2                !
 ! A28   A(16,14,17)           109.8495         estimate D2E/DX2                !
 ! A29   A(19,18,20)           104.35           estimate D2E/DX2                !
 ! A30   L(13,19,18,17,-1)     165.5531         estimate D2E/DX2                !
 ! A31   L(13,19,18,17,-2)     183.1884         estimate D2E/DX2                !
 ! D1    D(6,1,2,3)             -0.0132         estimate D2E/DX2                !
 ! D2    D(6,1,2,8)           -179.9532         estimate D2E/DX2                !
 ! D3    D(7,1,2,3)            179.9709         estimate D2E/DX2                !
 ! D4    D(7,1,2,8)              0.0309         estimate D2E/DX2                !
 ! D5    D(2,1,6,5)              0.028          estimate D2E/DX2                !
 ! D6    D(2,1,6,11)           179.9974         estimate D2E/DX2                !
 ! D7    D(7,1,6,5)           -179.9561         estimate D2E/DX2                !
 ! D8    D(7,1,6,11)             0.0133         estimate D2E/DX2                !
 ! D9    D(1,2,3,4)             -0.0206         estimate D2E/DX2                !
 ! D10   D(1,2,3,12)          -179.9271         estimate D2E/DX2                !
 ! D11   D(8,2,3,4)            179.9189         estimate D2E/DX2                !
 ! D12   D(8,2,3,12)             0.0124         estimate D2E/DX2                !
 ! D13   D(2,3,4,5)              0.0401         estimate D2E/DX2                !
 ! D14   D(2,3,4,9)           -179.905          estimate D2E/DX2                !
 ! D15   D(12,3,4,5)           179.9497         estimate D2E/DX2                !
 ! D16   D(12,3,4,9)             0.0046         estimate D2E/DX2                !
 ! D17   D(2,3,12,13)          179.7955         estimate D2E/DX2                !
 ! D18   D(2,3,12,14)           -0.0316         estimate D2E/DX2                !
 ! D19   D(4,3,12,13)           -0.1116         estimate D2E/DX2                !
 ! D20   D(4,3,12,14)         -179.9387         estimate D2E/DX2                !
 ! D21   D(3,4,5,6)             -0.0256         estimate D2E/DX2                !
 ! D22   D(3,4,5,10)          -179.9879         estimate D2E/DX2                !
 ! D23   D(9,4,5,6)            179.9179         estimate D2E/DX2                !
 ! D24   D(9,4,5,10)            -0.0444         estimate D2E/DX2                !
 ! D25   D(4,5,6,1)             -0.0086         estimate D2E/DX2                !
 ! D26   D(4,5,6,11)          -179.978          estimate D2E/DX2                !
 ! D27   D(10,5,6,1)           179.9536         estimate D2E/DX2                !
 ! D28   D(10,5,6,11)           -0.0158         estimate D2E/DX2                !
 ! D29   D(3,12,13,19)        -177.4003         estimate D2E/DX2                !
 ! D30   D(14,12,13,19)          2.4229         estimate D2E/DX2                !
 ! D31   D(3,12,14,15)         -57.8324         estimate D2E/DX2                !
 ! D32   D(3,12,14,16)          60.1476         estimate D2E/DX2                !
 ! D33   D(3,12,14,17)        -179.0552         estimate D2E/DX2                !
 ! D34   D(13,12,14,15)        122.3422         estimate D2E/DX2                !
 ! D35   D(13,12,14,16)       -119.6777         estimate D2E/DX2                !
 ! D36   D(13,12,14,17)          1.1195         estimate D2E/DX2                !
 ! D37   D(12,13,18,20)       -109.5834         estimate D2E/DX2                !
 --------------------------------------------------------------------------------
 Trust Radius=3.00D-01 FncErr=1.00D-07 GrdErr=1.00D-06
 Number of steps in this run=     98 maximum allowed number of steps=    120.
 GradGradGradGradGradGradGradGradGradGradGradGradGradGradGradGradGradGrad

                          Input orientation:                          
 ---------------------------------------------------------------------
 Center     Atomic      Atomic             Coordinates (Angstroms)
 Number     Number       Type             X           Y           Z
 ---------------------------------------------------------------------
      1          6           0        2.656883    1.069398    0.008646
      2          6           0        1.272983    1.178602    0.005146
      3          6           0        0.476090    0.033000   -0.000543
      4          6           0        1.085115   -1.224147   -0.003116
      5          6           0        2.465502   -1.332188    0.000784
      6          6           0        3.253802   -0.184930    0.006764
      7          1           0        3.266985    1.959437    0.012566
      8          1           0        0.818244    2.156224    0.005875
      9          1           0        0.455563   -2.099678   -0.009087
     10          1           0        2.930119   -2.306207   -0.001430
     11          1           0        4.329932   -0.269586    0.009444
     12          6           0       -1.011325    0.107140   -0.006043
     13          8           0       -1.675109   -0.917775   -0.014716
     14          6           0       -1.671560    1.461331   -0.004700
     15          1           0       -1.350389    2.035130    0.863491
     16          1           0       -1.373225    2.021734   -0.889848
     17          1           0       -2.748767    1.338723    0.007665
     18          8           0       -4.466846   -0.354929   -0.076520
     19          1           0       -3.562839   -0.699754   -0.098292
     20          1           0       -4.794926   -0.603631    0.787871
 ---------------------------------------------------------------------
                    Distance matrix (angstroms):
                    1          2          3          4          5
     1  C    0.000000
     2  C    1.388206   0.000000
     3  C    2.414552   1.395520   0.000000
     4  C    2.780457   2.410097   1.396903   0.000000
     5  C    2.409212   2.779602   2.412779   1.384614   0.000000
     6  C    1.389120   2.404759   2.786257   2.404844   1.391996
     7  H    1.079078   2.141449   3.391228   3.859535   3.387818
     8  H    2.135835   1.078208   2.150626   3.390901   3.857785
     9  H    3.858648   3.378683   2.132794   1.078390   2.151509
    10  H    3.386660   3.858761   3.390302   2.138901   1.079160
    11  H    2.142889   3.382633   3.865715   3.382334   2.145996
    12  C    3.792348   2.523137   1.489272   2.483424   3.762983
    13  O    4.766084   3.617518   2.351985   2.777199   4.161326
    14  C    4.346172   2.958102   2.579253   3.848513   4.991899
    15  H    4.209706   2.890065   2.844487   4.159997   5.161794
    16  H    4.237453   2.917928   2.857603   4.167190   5.174731
    17  H    5.412355   4.024937   3.479178   4.611623   5.858533
    18  O    7.265224   5.941719   4.958717   5.620071   7.001318
    19  H    6.467324   5.188843   4.106024   4.678410   6.062234
    20  H    7.676957   6.372482   5.367542   5.965365   7.339218
                    6          7          8          9         10
     6  C    0.000000
     7  H    2.144415   0.000000
     8  H    3.378305   2.456645   0.000000
     9  H    3.390671   4.937710   4.271354   0.000000
    10  H    2.145846   4.278948   4.936938   2.483171   0.000000
    11  H    1.079458   2.469496   4.268081   4.284894   2.471319
    12  C    4.275135   4.662112   2.747037   2.649871   4.621606
    13  O    4.983140   5.718687   3.958119   2.436532   4.809994
    14  C    5.193216   4.963631   2.584978   4.147946   5.947252
    15  H    5.182781   4.695737   2.335196   4.595595   6.157763
    16  H    5.204100   4.727555   2.371275   4.594153   6.167587
    17  H    6.192928   6.047692   3.659492   4.700065   6.747988
    18  O    7.722968   8.073188   5.851910   5.222912   7.650374
    19  H    6.836861   7.330081   5.230808   4.256207   6.689438
    20  H    8.097374   8.494988   6.303649   5.517330   7.949722
                   11         12         13         14         15
    11  H    0.000000
    12  C    5.354548   0.000000
    13  O    6.039971   1.221120   0.000000
    14  C    6.246133   1.506567   2.379130   0.000000
    15  H    6.189278   2.142008   3.097796   1.089106   0.000000
    16  H    6.211672   2.139568   3.081834   1.089285   1.753539
    17  H    7.259107   2.129716   2.499005   1.084233   1.781259
    18  O    8.797612   3.486990   2.848580   3.334304   4.038354
    19  H    7.905219   2.677650   1.902115   2.873323   3.646855
    20  H    9.164091   3.930793   3.236679   3.827225   4.339771
                   16         17         18         19         20
    16  H    0.000000
    17  H    1.778806   0.000000
    18  O    3.985037   2.413988   0.000000
    19  H    3.581545   2.197573   0.967785   0.000000
    20  H    4.627669   2.927153   0.957424   1.520711   0.000000
 Stoichiometry    C8H10O2
 Framework group  C1[X(C8H10O2)]
 Deg. of freedom    54
 Full point group                 C1      NOp   1
 Largest Abelian subgroup         C1      NOp   1
 Largest concise Abelian subgroup C1      NOp   1
                         Standard orientation:                         
 ---------------------------------------------------------------------
 Center     Atomic      Atomic             Coordinates (Angstroms)
 Number     Number       Type             X           Y           Z
 ---------------------------------------------------------------------
      1          6           0        2.656883    1.069398    0.008646
      2          6           0        1.272983    1.178602    0.005146
      3          6           0        0.476090    0.033000   -0.000543
      4          6           0        1.085115   -1.224147   -0.003116
      5          6           0        2.465502   -1.332188    0.000784
      6          6           0        3.253802   -0.184930    0.006764
      7          1           0        3.266985    1.959437    0.012566
      8          1           0        0.818244    2.156224    0.005875
      9          1           0        0.455563   -2.099678   -0.009087
     10          1           0        2.930119   -2.306207   -0.001430
     11          1           0        4.329932   -0.269586    0.009444
     12          6           0       -1.011325    0.107140   -0.006043
     13          8           0       -1.675109   -0.917775   -0.014716
     14          6           0       -1.671560    1.461331   -0.004700
     15          1           0       -1.350389    2.035130    0.863491
     16          1           0       -1.373225    2.021734   -0.889848
     17          1           0       -2.748767    1.338723    0.007665
     18          8           0       -4.466846   -0.354929   -0.076520
     19          1           0       -3.562839   -0.699754   -0.098292
     20          1           0       -4.794926   -0.603631    0.787871
 ---------------------------------------------------------------------
 Rotational constants (GHZ):      3.5368933      0.6166107      0.5275570
 Standard basis: Aug-CC-pVTZ (5D, 7F)
 There are   800 symmetry adapted cartesian basis functions of A   symmetry.
 There are   690 symmetry adapted basis functions of A   symmetry.
   690 basis functions,   990 primitive gaussians,   800 cartesian basis functions
    37 alpha electrons       37 beta electrons
       nuclear repulsion energy       485.7417036684 Hartrees.
 NAtoms=   20 NActive=   20 NUniq=   20 SFac= 1.00D+00 NAtFMM=   60 NAOKFM=F Big=F
 Integral buffers will be    131072 words long.
 Raffenetti 2 integral format.
 Two-electron integral symmetry is turned on.
 Nuclear repulsion after empirical dispersion term =      485.7276755907 Hartrees.
 One-electron integrals computed using PRISM.
 NBasis=   690 RedAO= T EigKep=  1.14D-06  NBF=   690
 NBsUse=   688 1.00D-06 EigRej=  6.06D-07 NBFU=   688
 ExpMin= 2.53D-02 ExpMax= 1.53D+04 ExpMxC= 5.22D+02 IAcc=3 IRadAn=         5 AccDes= 0.00D+00
 Harris functional with IExCor=  402 and IRadAn=       5 diagonalized for initial guess.
 HarFok:  IExCor=  402 AccDes= 0.00D+00 IRadAn=         5 IDoV= 1 UseB2=F ITyADJ=14
 ICtDFT=  3500011 ScaDFX=  1.000000  1.000000  1.000000  1.000000
 FoFCou: FMM=F IPFlag=           0 FMFlag=      100000 FMFlg1=           0
         NFxFlg=           0 DoJE=T BraDBF=F KetDBF=T FulRan=T
         wScrn=  0.000000 ICntrl=     500 IOpCl=  0 I1Cent=   200000004 NGrid=           0
         NMat0=    1 NMatS0=      1 NMatT0=    0 NMatD0=    1 NMtDS0=    0 NMtDT0=    0
 Petite list used in FoFCou.
 Requested convergence on RMS density matrix=1.00D-08 within 128 cycles.
 Requested convergence on MAX density matrix=1.00D-06.
 Requested convergence on             energy=1.00D-06.
 No special actions if energy rises.
 SCF Done:  E(RB3LYP) =  -461.527490648     A.U. after   12 cycles
            NFock= 12  Conv=0.78D-08     -V/T= 2.0060

 **********************************************************************

            Population analysis using the SCF density.

 **********************************************************************

 Orbital symmetries:
       Occupied  (A) (A) (A) (A) (A) (A) (A) (A) (A) (A) (A) (A)
                 (A) (A) (A) (A) (A) (A) (A) (A) (A) (A) (A) (A)
                 (A) (A) (A) (A) (A) (A) (A) (A) (A) (A) (A) (A)
                 (A)
       Virtual   (A) (A) (A) (A) (A) (A) (A) (A) (A) (A) (A) (A)
                 (A) (A) (A) (A) (A) (A) (A) (A) (A) (A) (A) (A)
                 (A) (A) (A) (A) (A) (A) (A) (A) (A) (A) (A) (A)
                 (A) (A) (A) (A) (A) (A) (A) (A) (A) (A) (A) (A)
                 (A) (A) (A) (A) (A) (A) (A) (A) (A) (A) (A) (A)
                 (A) (A) (A) (A) (A) (A) (A) (A) (A) (A) (A) (A)
                 (A) (A) (A) (A) (A) (A) (A) (A) (A) (A) (A) (A)
                 (A) (A) (A) (A) (A) (A) (A) (A) (A) (A) (A) (A)
                 (A) (A) (A) (A) (A) (A) (A) (A) (A) (A) (A) (A)
                 (A) (A) (A) (A) (A) (A) (A) (A) (A) (A) (A) (A)
                 (A) (A) (A) (A) (A) (A) (A) (A) (A) (A) (A) (A)
                 (A) (A) (A) (A) (A) (A) (A) (A) (A) (A) (A) (A)
                 (A) (A) (A) (A) (A) (A) (A) (A) (A) (A) (A) (A)
                 (A) (A) (A) (A) (A) (A) (A) (A) (A) (A) (A) (A)
                 (A) (A) (A) (A) (A) (A) (A) (A) (A) (A) (A) (A)
                 (A) (A) (A) (A) (A) (A) (A) (A) (A) (A) (A) (A)
                 (A) (A) (A) (A) (A) (A) (A) (A) (A) (A) (A) (A)
                 (A) (A) (A) (A) (A) (A) (A) (A) (A) (A) (A) (A)
                 (A) (A) (A) (A) (A) (A) (A) (A) (A) (A) (A) (A)
                 (A) (A) (A) (A) (A) (A) (A) (A) (A) (A) (A) (A)
                 (A) (A) (A) (A) (A) (A) (A) (A) (A) (A) (A) (A)
                 (A) (A) (A) (A) (A) (A) (A) (A) (A) (A) (A) (A)
                 (A) (A) (A) (A) (A) (A) (A) (A) (A) (A) (A) (A)
                 (A) (A) (A) (A) (A) (A) (A) (A) (A) (A) (A) (A)
                 (A) (A) (A) (A) (A) (A) (A) (A) (A) (A) (A) (A)
                 (A) (A) (A) (A) (A) (A) (A) (A) (A) (A) (A) (A)
                 (A) (A) (A) (A) (A) (A) (A) (A) (A) (A) (A) (A)
                 (A) (A) (A) (A) (A) (A) (A) (A) (A) (A) (A) (A)
                 (A) (A) (A) (A) (A) (A) (A) (A) (A) (A) (A) (A)
                 (A) (A) (A) (A) (A) (A) (A) (A) (A) (A) (A) (A)
                 (A) (A) (A) (A) (A) (A) (A) (A) (A) (A) (A) (A)
                 (A) (A) (A) (A) (A) (A) (A) (A) (A) (A) (A) (A)
                 (A) (A) (A) (A) (A) (A) (A) (A) (A) (A) (A) (A)
                 (A) (A) (A) (A) (A) (A) (A) (A) (A) (A) (A) (A)
                 (A) (A) (A) (A) (A) (A) (A) (A) (A) (A) (A) (A)
                 (A) (A) (A) (A) (A) (A) (A) (A) (A) (A) (A) (A)
                 (A) (A) (A) (A) (A) (A) (A) (A) (A) (A) (A) (A)
                 (A) (A) (A) (A) (A) (A) (A) (A) (A) (A) (A) (A)
                 (A) (A) (A) (A) (A) (A) (A) (A) (A) (A) (A) (A)
                 (A) (A) (A) (A) (A) (A) (A) (A) (A) (A) (A) (A)
                 (A) (A) (A) (A) (A) (A) (A) (A) (A) (A) (A) (A)
                 (A) (A) (A) (A) (A) (A) (A) (A) (A) (A) (A) (A)
                 (A) (A) (A) (A) (A) (A) (A) (A) (A) (A) (A) (A)
                 (A) (A) (A) (A) (A) (A) (A) (A) (A) (A) (A) (A)
                 (A) (A) (A) (A) (A) (A) (A) (A) (A) (A) (A) (A)
                 (A) (A) (A) (A) (A) (A) (A) (A) (A) (A) (A) (A)
                 (A) (A) (A) (A) (A) (A) (A) (A) (A) (A) (A) (A)
                 (A) (A) (A) (A) (A) (A) (A) (A) (A) (A) (A) (A)
                 (A) (A) (A) (A) (A) (A) (A) (A) (A) (A) (A) (A)
                 (A) (A) (A) (A) (A) (A) (A) (A) (A) (A) (A) (A)
                 (A) (A) (A) (A) (A) (A) (A) (A) (A) (A) (A) (A)
                 (A) (A) (A) (A) (A) (A) (A) (A) (A) (A) (A) (A)
                 (A) (A) (A) (A) (A) (A) (A) (A) (A) (A) (A) (A)
                 (A) (A) (A) (A) (A) (A) (A) (A) (A) (A) (A) (A)
                 (A) (A) (A)
 The electronic state is 1-A.
 Alpha  occ. eigenvalues --  -19.13483 -19.10490 -10.28069 -10.20293 -10.20224
 Alpha  occ. eigenvalues --  -10.20135 -10.19791 -10.19659 -10.19594 -10.18049
 Alpha  occ. eigenvalues --   -1.06154  -0.98889  -0.88279  -0.79303  -0.77150
 Alpha  occ. eigenvalues --   -0.74617  -0.64861  -0.62714  -0.57255  -0.53141
 Alpha  occ. eigenvalues --   -0.51112  -0.48488  -0.47962  -0.46411  -0.46078
 Alpha  occ. eigenvalues --   -0.44557  -0.43855  -0.40428  -0.39767  -0.37822
 Alpha  occ. eigenvalues --   -0.37452  -0.36986  -0.36351  -0.29466  -0.28123
 Alpha  occ. eigenvalues --   -0.27800  -0.27534
 Alpha virt. eigenvalues --   -0.08003  -0.03386  -0.01852  -0.00593  -0.00021
 Alpha virt. eigenvalues --    0.00960   0.01281   0.01706   0.01928   0.02588
 Alpha virt. eigenvalues --    0.03844   0.04156   0.04377   0.04978   0.05431
 Alpha virt. eigenvalues --    0.06184   0.06673   0.06823   0.07019   0.07787
 Alpha virt. eigenvalues --    0.07838   0.07920   0.08482   0.08859   0.09184
 Alpha virt. eigenvalues --    0.09899   0.10021   0.10479   0.10516   0.11269
 Alpha virt. eigenvalues --    0.11571   0.11843   0.12042   0.12893   0.13107
 Alpha virt. eigenvalues --    0.13269   0.13900   0.14741   0.14972   0.15391
 Alpha virt. eigenvalues --    0.16212   0.16384   0.16970   0.18339   0.18381
 Alpha virt. eigenvalues --    0.19016   0.19126   0.19395   0.19591   0.19798
 Alpha virt. eigenvalues --    0.20114   0.20300   0.20463   0.21209   0.21646
 Alpha virt. eigenvalues --    0.21903   0.22675   0.22920   0.23070   0.23526
 Alpha virt. eigenvalues --    0.23705   0.24061   0.24371   0.25151   0.25259
 Alpha virt. eigenvalues --    0.25585   0.26408   0.26814   0.27215   0.27646
 Alpha virt. eigenvalues --    0.28078   0.28384   0.28759   0.30119   0.30443
 Alpha virt. eigenvalues --    0.31121   0.31293   0.31991   0.32187   0.33081
 Alpha virt. eigenvalues --    0.33413   0.33654   0.34235   0.34391   0.34664
 Alpha virt. eigenvalues --    0.34850   0.35061   0.35850   0.36028   0.36503
 Alpha virt. eigenvalues --    0.36742   0.37357   0.37870   0.38212   0.38423
 Alpha virt. eigenvalues --    0.38862   0.38962   0.39759   0.40544   0.41039
 Alpha virt. eigenvalues --    0.41562   0.41765   0.42117   0.42769   0.43180
 Alpha virt. eigenvalues --    0.43560   0.43986   0.44376   0.44572   0.44929
 Alpha virt. eigenvalues --    0.45203   0.46429   0.46951   0.47273   0.47898
 Alpha virt. eigenvalues --    0.48332   0.48659   0.49474   0.49940   0.50571
 Alpha virt. eigenvalues --    0.51185   0.52047   0.52480   0.52887   0.53363
 Alpha virt. eigenvalues --    0.53633   0.55155   0.56109   0.56468   0.56940
 Alpha virt. eigenvalues --    0.57483   0.57936   0.59172   0.60352   0.60455
 Alpha virt. eigenvalues --    0.61373   0.61394   0.61967   0.62634   0.63696
 Alpha virt. eigenvalues --    0.63967   0.64778   0.65229   0.65798   0.66250
 Alpha virt. eigenvalues --    0.66659   0.67882   0.68363   0.69474   0.70104
 Alpha virt. eigenvalues --    0.70273   0.70966   0.71630   0.72143   0.72649
 Alpha virt. eigenvalues --    0.72772   0.73395   0.73836   0.73948   0.74103
 Alpha virt. eigenvalues --    0.74490   0.74955   0.75543   0.75832   0.76389
 Alpha virt. eigenvalues --    0.77532   0.77938   0.78325   0.78721   0.79625
 Alpha virt. eigenvalues --    0.79711   0.80237   0.80955   0.81466   0.82249
 Alpha virt. eigenvalues --    0.82689   0.83322   0.83655   0.84828   0.84929
 Alpha virt. eigenvalues --    0.85215   0.85835   0.86018   0.87026   0.87352
 Alpha virt. eigenvalues --    0.87457   0.88211   0.89001   0.89382   0.90155
 Alpha virt. eigenvalues --    0.90518   0.90830   0.91605   0.91747   0.92030
 Alpha virt. eigenvalues --    0.92569   0.92913   0.93535   0.93660   0.94834
 Alpha virt. eigenvalues --    0.95113   0.95603   0.95869   0.96184   0.96889
 Alpha virt. eigenvalues --    0.97014   0.98080   0.98563   0.99036   0.99788
 Alpha virt. eigenvalues --    1.00205   1.00833   1.01533   1.02148   1.02652
 Alpha virt. eigenvalues --    1.03573   1.04347   1.04623   1.05015   1.05413
 Alpha virt. eigenvalues --    1.06111   1.06475   1.06921   1.07279   1.08182
 Alpha virt. eigenvalues --    1.08711   1.09444   1.09609   1.10168   1.11087
 Alpha virt. eigenvalues --    1.11703   1.12170   1.13719   1.14845   1.15660
 Alpha virt. eigenvalues --    1.16157   1.16600   1.17491   1.18656   1.19875
 Alpha virt. eigenvalues --    1.20248   1.20927   1.22013   1.22826   1.23286
 Alpha virt. eigenvalues --    1.23760   1.24779   1.25903   1.26425   1.28069
 Alpha virt. eigenvalues --    1.28681   1.29262   1.29661   1.30335   1.31718
 Alpha virt. eigenvalues --    1.32049   1.32841   1.33476   1.33898   1.35072
 Alpha virt. eigenvalues --    1.36516   1.36699   1.37413   1.38817   1.39561
 Alpha virt. eigenvalues --    1.40127   1.40534   1.41686   1.42450   1.44173
 Alpha virt. eigenvalues --    1.44407   1.45902   1.47155   1.47677   1.48016
 Alpha virt. eigenvalues --    1.49130   1.49320   1.49770   1.50483   1.50879
 Alpha virt. eigenvalues --    1.51455   1.52413   1.53243   1.53649   1.55110
 Alpha virt. eigenvalues --    1.56170   1.57709   1.59594   1.60342   1.60650
 Alpha virt. eigenvalues --    1.61844   1.62178   1.62308   1.63314   1.64328
 Alpha virt. eigenvalues --    1.64401   1.65194   1.65569   1.66425   1.67072
 Alpha virt. eigenvalues --    1.68600   1.68908   1.69678   1.70178   1.71526
 Alpha virt. eigenvalues --    1.72184   1.74284   1.75192   1.76309   1.76787
 Alpha virt. eigenvalues --    1.78163   1.79103   1.79397   1.80019   1.81234
 Alpha virt. eigenvalues --    1.82430   1.82451   1.83367   1.84331   1.85565
 Alpha virt. eigenvalues --    1.86432   1.87266   1.87604   1.88725   1.89450
 Alpha virt. eigenvalues --    1.90439   1.91310   1.93295   1.93978   1.94916
 Alpha virt. eigenvalues --    1.95330   1.96223   1.97076   1.98546   2.00002
 Alpha virt. eigenvalues --    2.00058   2.01087   2.02160   2.02947   2.04967
 Alpha virt. eigenvalues --    2.05256   2.07513   2.08153   2.09167   2.10205
 Alpha virt. eigenvalues --    2.11282   2.13478   2.14922   2.15595   2.16043
 Alpha virt. eigenvalues --    2.17618   2.19061   2.19970   2.20971   2.21575
 Alpha virt. eigenvalues --    2.23977   2.24198   2.25053   2.26371   2.28021
 Alpha virt. eigenvalues --    2.29070   2.30588   2.31689   2.32823   2.33802
 Alpha virt. eigenvalues --    2.36145   2.36779   2.37694   2.38748   2.39923
 Alpha virt. eigenvalues --    2.41085   2.42112   2.44397   2.44926   2.47502
 Alpha virt. eigenvalues --    2.48569   2.49785   2.50727   2.51406   2.53444
 Alpha virt. eigenvalues --    2.54355   2.56531   2.57815   2.60045   2.62822
 Alpha virt. eigenvalues --    2.64088   2.65343   2.66869   2.68843   2.71267
 Alpha virt. eigenvalues --    2.72104   2.73734   2.75131   2.79951   2.81024
 Alpha virt. eigenvalues --    2.83442   2.85497   2.86042   2.87574   2.88269
 Alpha virt. eigenvalues --    2.91293   2.92411   2.93614   2.94692   2.98728
 Alpha virt. eigenvalues --    2.98976   3.00850   3.01706   3.03241   3.03836
 Alpha virt. eigenvalues --    3.07082   3.07999   3.08237   3.09555   3.10922
 Alpha virt. eigenvalues --    3.11452   3.12681   3.13043   3.15607   3.18326
 Alpha virt. eigenvalues --    3.18821   3.19689   3.20631   3.22942   3.23069
 Alpha virt. eigenvalues --    3.24198   3.24894   3.27190   3.27522   3.28132
 Alpha virt. eigenvalues --    3.28752   3.31559   3.31755   3.33600   3.33790
 Alpha virt. eigenvalues --    3.35420   3.36635   3.37638   3.38084   3.39010
 Alpha virt. eigenvalues --    3.41401   3.42256   3.42689   3.44219   3.46070
 Alpha virt. eigenvalues --    3.48037   3.49397   3.50815   3.51135   3.52068
 Alpha virt. eigenvalues --    3.53591   3.55517   3.57284   3.57505   3.57680
 Alpha virt. eigenvalues --    3.59438   3.60933   3.61492   3.62375   3.62764
 Alpha virt. eigenvalues --    3.63765   3.65099   3.66393   3.66581   3.67097
 Alpha virt. eigenvalues --    3.67915   3.69970   3.70079   3.70671   3.74613
 Alpha virt. eigenvalues --    3.75603   3.75980   3.79373   3.79575   3.79944
 Alpha virt. eigenvalues --    3.82306   3.84399   3.84686   3.85877   3.86900
 Alpha virt. eigenvalues --    3.87967   3.88445   3.89189   3.89830   3.91228
 Alpha virt. eigenvalues --    3.91964   3.93104   3.93875   3.95057   3.95940
 Alpha virt. eigenvalues --    3.97093   3.97425   3.98366   4.00887   4.01249
 Alpha virt. eigenvalues --    4.02743   4.02855   4.03797   4.05129   4.05667
 Alpha virt. eigenvalues --    4.05963   4.08230   4.09547   4.11605   4.11886
 Alpha virt. eigenvalues --    4.12261   4.13810   4.14598   4.15060   4.17192
 Alpha virt. eigenvalues --    4.17476   4.19326   4.19893   4.20485   4.21154
 Alpha virt. eigenvalues --    4.22540   4.23844   4.27956   4.28856   4.30462
 Alpha virt. eigenvalues --    4.31619   4.32329   4.33535   4.33740   4.35034
 Alpha virt. eigenvalues --    4.36717   4.37943   4.39234   4.40995   4.44657
 Alpha virt. eigenvalues --    4.44932   4.46669   4.47814   4.50071   4.53118
 Alpha virt. eigenvalues --    4.54660   4.55797   4.56577   4.57381   4.58958
 Alpha virt. eigenvalues --    4.60684   4.61195   4.63049   4.65294   4.66089
 Alpha virt. eigenvalues --    4.69150   4.69490   4.71424   4.72475   4.73386
 Alpha virt. eigenvalues --    4.73756   4.75002   4.76153   4.81727   4.83208
 Alpha virt. eigenvalues --    4.83436   4.84175   4.86541   4.87738   4.88924
 Alpha virt. eigenvalues --    4.91279   4.91573   4.94250   4.94941   4.95302
 Alpha virt. eigenvalues --    4.95748   4.97395   4.99510   5.01093   5.01393
 Alpha virt. eigenvalues --    5.02873   5.06278   5.06570   5.09231   5.09798
 Alpha virt. eigenvalues --    5.10336   5.15665   5.18829   5.21006   5.22683
 Alpha virt. eigenvalues --    5.27189   5.29722   5.30899   5.35292   5.35802
 Alpha virt. eigenvalues --    5.38656   5.42098   5.43066   5.46254   5.47525
 Alpha virt. eigenvalues --    5.50630   5.54353   5.59438   5.68036   5.71799
 Alpha virt. eigenvalues --    5.76840   5.77975   5.80224   5.82828   5.84814
 Alpha virt. eigenvalues --    5.87210   5.90973   5.91619   5.93512   6.00816
 Alpha virt. eigenvalues --    6.02236   6.12133   6.17715   6.18488   6.20395
 Alpha virt. eigenvalues --    6.32379   6.34184   6.37128   6.44176   6.45796
 Alpha virt. eigenvalues --    6.46961   6.50608   6.51647   6.57032   6.62733
 Alpha virt. eigenvalues --    6.73459   6.73845   6.75471   6.82726   6.85733
 Alpha virt. eigenvalues --    6.87153   6.90739   6.92360   6.93296   6.97359
 Alpha virt. eigenvalues --    7.06565   7.07427   7.17926   7.21615   7.29110
 Alpha virt. eigenvalues --    7.32899   7.38344   7.51620   7.59042   7.63150
 Alpha virt. eigenvalues --    8.46856  14.85565  15.55884  15.96225  16.23189
 Alpha virt. eigenvalues --   17.43117  18.16931  18.26915  19.07354  19.37153
 Alpha virt. eigenvalues --   20.06694
          Condensed to atoms (all electrons):
               1          2          3          4          5          6
     1  C    7.650998  -0.282686  -0.268806  -0.434028   0.304389  -0.152562
     2  C   -0.282686   7.835278  -0.790575   0.089926  -0.494501   0.139231
     3  C   -0.268806  -0.790575   7.299849  -0.605469   0.018889  -0.343844
     4  C   -0.434028   0.089926  -0.605469   8.075114  -0.110736   0.188560
     5  C    0.304389  -0.494501   0.018889  -0.110736   7.231547  -0.083215
     6  C   -0.152562   0.139231  -0.343844   0.188560  -0.083215   6.462131
     7  H    0.348252  -0.120771   0.036755   0.022004   0.021178  -0.194497
     8  H   -0.545626   0.141114   0.161618   0.029459   0.012614   0.000256
     9  H    0.003287   0.084356  -0.021092   0.087493  -0.434911   0.005262
    10  H    0.027433   0.005661   0.074482  -0.166471   0.355115  -0.187602
    11  H   -0.235225   0.066515  -0.023431   0.070668  -0.221688   0.412180
    12  C    0.223604  -0.163861  -0.922256  -0.542770  -0.048500   0.051793
    13  O   -0.042788   0.033258  -0.077839   0.186259  -0.043748  -0.000430
    14  C   -0.010933  -0.107018   0.163913   0.024076  -0.003458  -0.008259
    15  H    0.017215   0.055698  -0.092224  -0.002598  -0.005240   0.001347
    16  H    0.018698   0.056830  -0.093456  -0.003714  -0.005343   0.001221
    17  H   -0.008143  -0.042462   0.055214   0.017770   0.005915  -0.001877
    18  O   -0.000262  -0.001088  -0.001378   0.001519  -0.000533   0.000032
    19  H    0.000705   0.001225  -0.014210   0.002129   0.000787  -0.000079
    20  H    0.000064   0.000941  -0.002798  -0.000013  -0.000181   0.000004
               7          8          9         10         11         12
     1  C    0.348252  -0.545626   0.003287   0.027433  -0.235225   0.223604
     2  C   -0.120771   0.141114   0.084356   0.005661   0.066515  -0.163861
     3  C    0.036755   0.161618  -0.021092   0.074482  -0.023431  -0.922256
     4  C    0.022004   0.029459   0.087493  -0.166471   0.070668  -0.542770
     5  C    0.021178   0.012614  -0.434911   0.355115  -0.221688  -0.048500
     6  C   -0.194497   0.000256   0.005262  -0.187602   0.412180   0.051793
     7  H    0.536611   0.032139  -0.000044   0.000069  -0.014695   0.001901
     8  H    0.032139   0.985734  -0.008017   0.000206  -0.001399  -0.004556
     9  H   -0.000044  -0.008017   0.812498   0.024029  -0.000711   0.029430
    10  H    0.000069   0.000206   0.024029   0.523827  -0.013827   0.003913
    11  H   -0.014695  -0.001399  -0.000711  -0.013827   0.573473  -0.006972
    12  C    0.001901  -0.004556   0.029430   0.003913  -0.006972   7.285171
    13  O   -0.001823  -0.000038   0.036295  -0.005209   0.001632  -0.455969
    14  C    0.000062  -0.008463  -0.005834  -0.000073   0.001545  -0.061329
    15  H   -0.000964  -0.055600   0.001119   0.000209  -0.000191   0.011449
    16  H   -0.000804  -0.056048   0.001322   0.000136  -0.000144   0.018334
    17  H    0.000611   0.020472  -0.000141  -0.000146   0.000173  -0.045841
    18  O    0.000002  -0.000959   0.001877  -0.000048   0.000002   0.016282
    19  H    0.000002   0.000170  -0.000811   0.000255  -0.000060   0.025126
    20  H    0.000005   0.000006  -0.000402   0.000007   0.000000  -0.001927
              13         14         15         16         17         18
     1  C   -0.042788  -0.010933   0.017215   0.018698  -0.008143  -0.000262
     2  C    0.033258  -0.107018   0.055698   0.056830  -0.042462  -0.001088
     3  C   -0.077839   0.163913  -0.092224  -0.093456   0.055214  -0.001378
     4  C    0.186259   0.024076  -0.002598  -0.003714   0.017770   0.001519
     5  C   -0.043748  -0.003458  -0.005240  -0.005343   0.005915  -0.000533
     6  C   -0.000430  -0.008259   0.001347   0.001221  -0.001877   0.000032
     7  H   -0.001823   0.000062  -0.000964  -0.000804   0.000611   0.000002
     8  H   -0.000038  -0.008463  -0.055600  -0.056048   0.020472  -0.000959
     9  H    0.036295  -0.005834   0.001119   0.001322  -0.000141   0.001877
    10  H   -0.005209  -0.000073   0.000209   0.000136  -0.000146  -0.000048
    11  H    0.001632   0.001545  -0.000191  -0.000144   0.000173   0.000002
    12  C   -0.455969  -0.061329   0.011449   0.018334  -0.045841   0.016282
    13  O    9.518501  -0.054717   0.002015  -0.003284  -0.030738  -0.050305
    14  C   -0.054717   5.634053   0.390728   0.382229   0.313217  -0.020975
    15  H    0.002015   0.390728   0.547635   0.049889  -0.108570   0.001245
    16  H   -0.003284   0.382229   0.049889   0.548316  -0.106170   0.002298
    17  H   -0.030738   0.313217  -0.108570  -0.106170   0.675550   0.002760
    18  O   -0.050305  -0.020975   0.001245   0.002298   0.002760   8.115118
    19  H   -0.027067  -0.010763  -0.002646  -0.002741  -0.010694   0.147159
    20  H    0.005950   0.000282  -0.000494  -0.000149  -0.000984   0.249661
              19         20
     1  C    0.000705   0.000064
     2  C    0.001225   0.000941
     3  C   -0.014210  -0.002798
     4  C    0.002129  -0.000013
     5  C    0.000787  -0.000181
     6  C   -0.000079   0.000004
     7  H    0.000002   0.000005
     8  H    0.000170   0.000006
     9  H   -0.000811  -0.000402
    10  H    0.000255   0.000007
    11  H   -0.000060   0.000000
    12  C    0.025126  -0.001927
    13  O   -0.027067   0.005950
    14  C   -0.010763   0.000282
    15  H   -0.002646  -0.000494
    16  H   -0.002741  -0.000149
    17  H   -0.010694  -0.000984
    18  O    0.147159   0.249661
    19  H    0.526862   0.035206
    20  H    0.035206   0.582143
 Mulliken charges:
               1
     1  C   -0.613585
     2  C   -0.507071
     3  C    1.446658
     4  C   -0.929177
     5  C   -0.498379
     6  C   -0.289653
     7  H    0.334008
     8  H    0.296915
     9  H    0.384995
    10  H    0.358034
    11  H    0.392154
    12  C    0.586979
    13  O   -0.989956
    14  C   -0.618282
    15  H    0.189976
    16  H    0.192580
    17  H    0.264083
    18  O   -0.462406
    19  H    0.329446
    20  H    0.132680
 Sum of Mulliken charges =   0.00000
 Mulliken charges with hydrogens summed into heavy atoms:
               1
     1  C   -0.279577
     2  C   -0.210155
     3  C    1.446658
     4  C   -0.544183
     5  C   -0.140345
     6  C    0.102502
    12  C    0.586979
    13  O   -0.989956
    14  C    0.028358
    18  O   -0.000280
 Electronic spatial extent (au):  <R**2>=           2059.2036
 Charge=              0.0000 electrons
 Dipole moment (field-independent basis, Debye):
    X=              4.0493    Y=              1.5027    Z=              1.2879  Tot=              4.5071
 Quadrupole moment (field-independent basis, Debye-Ang):
   XX=            -66.9788   YY=            -55.4958   ZZ=            -61.3690
   XY=             -1.9363   XZ=             -6.8902   YZ=             -0.9505
 Traceless Quadrupole moment (field-independent basis, Debye-Ang):
   XX=             -5.6976   YY=              5.7854   ZZ=             -0.0878
   XY=             -1.9363   XZ=             -6.8902   YZ=             -0.9505
 Octapole moment (field-independent basis, Debye-Ang**2):
  XXX=             61.4377  YYY=             -2.2219  ZZZ=              1.1486  XYY=              0.6008
  XXY=             -4.9135  XXZ=             35.4672  XZZ=            -20.8573  YZZ=             -0.8555
  YYZ=              0.5772  XYZ=              4.8030
 Hexadecapole moment (field-independent basis, Debye-Ang**3):
 XXXX=          -2282.3252 YYYY=           -442.8145 ZZZZ=            -76.3446 XXXY=             31.5884
 XXXZ=           -180.3623 YYYX=              3.7360 YYYZ=             -0.7474 ZZZX=             -7.3298
 ZZZY=             -1.2624 XXYY=           -416.4459 XXZZ=           -369.0544 YYZZ=            -94.3339
 XXYZ=            -23.3556 YYXZ=             -3.5526 ZZXY=              6.3450
 N-N= 4.857276755907D+02 E-N=-2.047393123502D+03  KE= 4.587807919106D+02
 Calling FoFJK, ICntrl=      2127 FMM=F ISym2X=0 I1Cent= 0 IOpClX= 0 NMat=1 NMatS=1 NMatT=0.
 ***** Axes restored to original set *****
 -------------------------------------------------------------------
 Center     Atomic                   Forces (Hartrees/Bohr)
 Number     Number              X              Y              Z
 -------------------------------------------------------------------
      1        6          -0.000586420   -0.000096061   -0.000001994
      2        6           0.001347773   -0.000238793   -0.000010002
      3        6          -0.000682827   -0.000016913    0.000117091
      4        6           0.001285256    0.000051148    0.000002357
      5        6          -0.000491809    0.000269538   -0.000004427
      6        6          -0.000470536   -0.000009272   -0.000000790
      7        1           0.000917710    0.001310152    0.000005164
      8        1           0.000310735    0.001311103   -0.000003452
      9        1          -0.000466394   -0.001387448   -0.000003797
     10        1           0.000691902   -0.001440269   -0.000003380
     11        1           0.001575256   -0.000133481    0.000004312
     12        6           0.001011287   -0.000117342   -0.000263258
     13        8          -0.001707360   -0.000881404   -0.000186679
     14        6          -0.000323351   -0.000698304   -0.000012904
     15        1          -0.000221185    0.001003640    0.001136102
     16        1          -0.000154118    0.001002494   -0.001140017
     17        1          -0.000889182    0.001076493   -0.000065297
     18        8          -0.003059061    0.001713122   -0.002058446
     19        1           0.004625826   -0.001741768   -0.000383747
     20        1          -0.002713502   -0.000976637    0.002873163
 -------------------------------------------------------------------
 Cartesian Forces:  Max     0.004625826 RMS     0.001198623

 GradGradGradGradGradGradGradGradGradGradGradGradGradGradGradGradGradGrad
 Berny optimization.
 FormGI is forming the generalized inverse of G from B-inverse, IUseBI=4.
 Internal  Forces:  Max     0.005868543 RMS     0.001404955
 Search for a local minimum.
 Step number   1 out of a maximum of   98
 All quantities printed in internal units (Hartrees-Bohrs-Radians)
 Mixed Optimization -- RFO/linear search
 Second derivative matrix not updated -- first step.
 ITU=  0
     Eigenvalues ---    0.00230   0.00679   0.00908   0.01333   0.01455
     Eigenvalues ---    0.01455   0.01762   0.02151   0.02192   0.02207
     Eigenvalues ---    0.02213   0.02227   0.02233   0.02239   0.02254
     Eigenvalues ---    0.04058   0.05086   0.07366   0.07444   0.16000
     Eigenvalues ---    0.16000   0.16000   0.16000   0.16000   0.16000
     Eigenvalues ---    0.16000   0.16000   0.16000   0.16000   0.22000
     Eigenvalues ---    0.22000   0.23478   0.25000   0.25000   0.25000
     Eigenvalues ---    0.31698   0.33529   0.34895   0.34916   0.35488
     Eigenvalues ---    0.36060   0.36096   0.36106   0.36190   0.36212
     Eigenvalues ---    0.42480   0.42877   0.46558   0.46742   0.47401
     Eigenvalues ---    0.48021   0.53832   0.56031   0.94889
 RFO step:  Lambda=-1.24945736D-03 EMin= 2.30000000D-03
 Linear search not attempted -- first point.
 Iteration  1 RMS(Cart)=  0.08109835 RMS(Int)=  0.01634503
 Iteration  2 RMS(Cart)=  0.02623780 RMS(Int)=  0.00184673
 Iteration  3 RMS(Cart)=  0.00171330 RMS(Int)=  0.00000407
 Iteration  4 RMS(Cart)=  0.00000422 RMS(Int)=  0.00000306
 Iteration  5 RMS(Cart)=  0.00000000 RMS(Int)=  0.00000306
 Variable       Old X    -DE/DX   Delta X   Delta X   Delta X     New X
                                 (Linear)    (Quad)   (Total)
    R1        2.62333   0.00084   0.00000   0.00178   0.00178   2.62511
    R2        2.62506   0.00095   0.00000   0.00188   0.00188   2.62694
    R3        2.03916   0.00160   0.00000   0.00441   0.00441   2.04357
    R4        2.63715   0.00267   0.00000   0.00588   0.00588   2.64303
    R5        2.03752   0.00106   0.00000   0.00291   0.00291   2.04043
    R6        2.63976   0.00236   0.00000   0.00522   0.00522   2.64499
    R7        2.81432   0.00344   0.00000   0.01024   0.01024   2.82455
    R8        2.61654   0.00080   0.00000   0.00163   0.00163   2.61817
    R9        2.03786   0.00140   0.00000   0.00385   0.00385   2.04172
   R10        2.63049   0.00085   0.00000   0.00168   0.00167   2.63217
   R11        2.03932   0.00160   0.00000   0.00441   0.00441   2.04373
   R12        2.03988   0.00158   0.00000   0.00437   0.00437   2.04425
   R13        2.30758   0.00313   0.00000   0.00329   0.00329   2.31088
   R14        2.84700   0.00284   0.00000   0.00893   0.00893   2.85593
   R15        3.59448   0.00101   0.00000   0.01937   0.01937   3.61385
   R16        2.05811   0.00137   0.00000   0.00391   0.00391   2.06202
   R17        2.05845   0.00140   0.00000   0.00400   0.00400   2.06245
   R18        2.04890   0.00076   0.00000   0.00213   0.00213   2.05103
   R19        1.82885   0.00567   0.00000   0.01051   0.01051   1.83935
   R20        1.80927   0.00378   0.00000   0.00673   0.00673   1.81600
    A1        2.09371   0.00021   0.00000   0.00064   0.00064   2.09435
    A2        2.09297  -0.00009   0.00000  -0.00021  -0.00021   2.09276
    A3        2.09651  -0.00012   0.00000  -0.00043  -0.00043   2.09608
    A4        2.09983   0.00048   0.00000   0.00238   0.00238   2.10221
    A5        2.08492  -0.00109   0.00000  -0.00647  -0.00647   2.07845
    A6        2.09844   0.00061   0.00000   0.00409   0.00409   2.10252
    A7        2.08269  -0.00147   0.00000  -0.00551  -0.00551   2.07718
    A8        2.12878   0.00190   0.00000   0.00738   0.00738   2.13616
    A9        2.07172  -0.00043   0.00000  -0.00187  -0.00188   2.06984
   A10        2.10003   0.00066   0.00000   0.00306   0.00307   2.10309
   A11        2.06707   0.00011   0.00000   0.00119   0.00119   2.06825
   A12        2.11609  -0.00077   0.00000  -0.00425  -0.00425   2.11184
   A13        2.09472   0.00014   0.00000   0.00021   0.00021   2.09493
   A14        2.09398  -0.00007   0.00000  -0.00009  -0.00008   2.09390
   A15        2.09448  -0.00007   0.00000  -0.00012  -0.00012   2.09436
   A16        2.09539  -0.00003   0.00000  -0.00078  -0.00078   2.09461
   A17        2.09347   0.00003   0.00000   0.00046   0.00046   2.09393
   A18        2.09432   0.00000   0.00000   0.00032   0.00032   2.09464
   A19        2.09572  -0.00188   0.00000  -0.00748  -0.00748   2.08825
   A20        2.07423   0.00106   0.00000   0.00423   0.00423   2.07846
   A21        2.11323   0.00082   0.00000   0.00324   0.00324   2.11647
   A22        2.03039   0.00587   0.00000   0.03639   0.03639   2.06678
   A23        1.92308   0.00049   0.00000   0.00334   0.00332   1.92641
   A24        1.91951   0.00040   0.00000   0.00251   0.00250   1.92201
   A25        1.91109   0.00137   0.00000   0.00820   0.00819   1.91927
   A26        1.87125  -0.00032   0.00000  -0.00135  -0.00136   1.86989
   A27        1.92141  -0.00098   0.00000  -0.00618  -0.00620   1.91521
   A28        1.91724  -0.00101   0.00000  -0.00680  -0.00681   1.91043
   A29        1.82125   0.00268   0.00000   0.01659   0.01659   1.83784
   A30        2.88945   0.00164   0.00000   0.10413   0.10413   2.99358
   A31        3.19724  -0.00102   0.00000  -0.06437  -0.06437   3.13287
    D1       -0.00023   0.00000   0.00000   0.00005   0.00005  -0.00018
    D2       -3.14078   0.00001   0.00000   0.00027   0.00027  -3.14050
    D3        3.14108   0.00000   0.00000  -0.00005  -0.00005   3.14103
    D4        0.00054   0.00000   0.00000   0.00017   0.00017   0.00071
    D5        0.00049   0.00000   0.00000   0.00007   0.00007   0.00055
    D6        3.14155   0.00000   0.00000  -0.00002  -0.00002   3.14153
    D7       -3.14083   0.00000   0.00000   0.00017   0.00017  -3.14066
    D8        0.00023   0.00000   0.00000   0.00008   0.00008   0.00031
    D9       -0.00036   0.00000   0.00000  -0.00017  -0.00017  -0.00053
   D10       -3.14032   0.00001   0.00000   0.00048   0.00048  -3.13984
   D11        3.14018  -0.00001   0.00000  -0.00041  -0.00041   3.13977
   D12        0.00022   0.00000   0.00000   0.00025   0.00025   0.00047
   D13        0.00070   0.00000   0.00000   0.00019   0.00019   0.00089
   D14       -3.13993   0.00000   0.00000   0.00013   0.00013  -3.13981
   D15        3.14071  -0.00001   0.00000  -0.00044  -0.00043   3.14028
   D16        0.00008  -0.00001   0.00000  -0.00050  -0.00050  -0.00042
   D17        3.13802  -0.00003   0.00000  -0.00286  -0.00286   3.13516
   D18       -0.00055  -0.00002   0.00000  -0.00163  -0.00163  -0.00218
   D19       -0.00195  -0.00002   0.00000  -0.00221  -0.00220  -0.00415
   D20       -3.14052  -0.00001   0.00000  -0.00097  -0.00097  -3.14150
   D21       -0.00045   0.00000   0.00000  -0.00008  -0.00008  -0.00053
   D22       -3.14138   0.00000   0.00000  -0.00007  -0.00007  -3.14145
   D23        3.14016   0.00000   0.00000  -0.00001  -0.00001   3.14015
   D24       -0.00077   0.00000   0.00000   0.00000   0.00000  -0.00077
   D25       -0.00015   0.00000   0.00000  -0.00005  -0.00005  -0.00020
   D26       -3.14121   0.00000   0.00000   0.00004   0.00004  -3.14117
   D27        3.14078   0.00000   0.00000  -0.00006  -0.00006   3.14072
   D28       -0.00028   0.00000   0.00000   0.00002   0.00002  -0.00025
   D29       -3.09622  -0.00040   0.00000  -0.00915  -0.00915  -3.10537
   D30        0.04229  -0.00042   0.00000  -0.01041  -0.01041   0.03188
   D31       -1.00937  -0.00013   0.00000  -0.00909  -0.00909  -1.01845
   D32        1.04977   0.00002   0.00000  -0.00719  -0.00720   1.04258
   D33       -3.12510  -0.00011   0.00000  -0.00882  -0.00882  -3.13393
   D34        2.13527  -0.00011   0.00000  -0.00782  -0.00781   2.12746
   D35       -2.08877   0.00004   0.00000  -0.00593  -0.00593  -2.09470
   D36        0.01954  -0.00009   0.00000  -0.00755  -0.00755   0.01199
   D37       -1.91259  -0.00120   0.00000  -0.33735  -0.33735  -2.24994
         Item               Value     Threshold  Converged?
 Maximum Force            0.005869     0.000450     NO 
 RMS     Force            0.001405     0.000300     NO 
 Maximum Displacement     0.665515     0.001800     NO 
 RMS     Displacement     0.101394     0.001200     NO 
 Predicted change in Energy=-7.073899D-04
 GradGradGradGradGradGradGradGradGradGradGradGradGradGradGradGradGradGrad

                          Input orientation:                          
 ---------------------------------------------------------------------
 Center     Atomic      Atomic             Coordinates (Angstroms)
 Number     Number       Type             X           Y           Z
 ---------------------------------------------------------------------
      1          6           0        2.694824    1.054517   -0.016850
      2          6           0        1.312885    1.195614   -0.008596
      3          6           0        0.485417    0.068158    0.008871
      4          6           0        1.070551   -1.203304    0.017245
      5          6           0        2.448938   -1.343063    0.009429
      6          6           0        3.264018   -0.213693   -0.007524
      7          1           0        3.326346    1.932262   -0.030884
      8          1           0        0.886480    2.187563   -0.017051
      9          1           0        0.423575   -2.068528    0.029045
     10          1           0        2.892006   -2.329614    0.015863
     11          1           0        4.340219   -0.323125   -0.014019
     12          6           0       -1.005821    0.169400    0.016088
     13          8           0       -1.681293   -0.849943    0.024637
     14          6           0       -1.649427    1.536766    0.007031
     15          1           0       -1.320866    2.117030    0.870745
     16          1           0       -1.346868    2.088273   -0.884853
     17          1           0       -2.730164    1.437795    0.021668
     18          8           0       -4.531030   -0.452002   -0.059754
     19          1           0       -3.585422   -0.680405   -0.027264
     20          1           0       -4.938136   -0.955806    0.650131
 ---------------------------------------------------------------------
                    Distance matrix (angstroms):
                    1          2          3          4          5
     1  C    0.000000
     2  C    1.389147   0.000000
     3  C    2.419720   1.398630   0.000000
     4  C    2.781579   2.411266   1.399667   0.000000
     5  C    2.410299   2.781335   2.418049   1.385477   0.000000
     6  C    1.390117   2.406879   2.792908   2.406501   1.392882
     7  H    1.081413   2.144102   3.398138   3.862992   3.391050
     8  H    2.133987   1.079748   2.157174   3.396033   3.860997
     9  H    3.861876   3.383329   2.137677   1.080430   2.151460
    10  H    3.390028   3.862830   3.397210   2.141559   1.081496
    11  H    2.145980   3.386938   3.874678   3.386211   2.148899
    12  C    3.805166   2.535769   1.494688   2.489104   3.771333
    13  O    4.772744   3.626363   2.353251   2.774448   4.159592
    14  C    4.371001   2.981933   2.591210   3.860877   5.008994
    15  H    4.247649   2.925558   2.864151   4.179947   5.188982
    16  H    4.261144   2.939209   2.869995   4.182364   5.194415
    17  H    5.438646   4.050409   3.495143   4.628267   5.878471
    18  O    7.381355   6.071952   5.043809   5.652264   7.036954
    19  H    6.515485   5.245303   4.139248   4.685454   6.070746
    20  H    7.921385   6.643629   5.556496   6.046993   7.424913
                    6          7          8          9         10
     6  C    0.000000
     7  H    2.146986   0.000000
     8  H    3.379172   2.453226   0.000000
     9  H    3.392620   4.943277   4.281439   0.000000
    10  H    2.148503   4.284206   4.942480   2.482235   0.000000
    11  H    1.081770   2.472850   4.269880   4.288168   2.474715
    12  C    4.287056   4.677346   2.766746   2.655498   4.630133
    13  O    4.986176   5.728891   3.977642   2.432168   4.806721
    14  C    5.215962   4.991611   2.618195   4.158843   5.964360
    15  H    5.217738   4.737473   2.380238   4.611988   6.184801
    16  H    5.227716   4.753160   2.398079   4.609628   6.188462
    17  H    6.217594   6.076888   3.693747   4.715976   6.767732
    18  O    7.798865   8.211206   6.026487   5.212404   7.657193
    19  H    6.865350   7.389085   5.312555   4.242890   6.684222
    20  H    8.261875   8.781025   6.652222   5.511066   7.975009
                   11         12         13         14         15
    11  H    0.000000
    12  C    5.368765   0.000000
    13  O    6.044637   1.222864   0.000000
    14  C    6.271802   1.511291   2.386987   0.000000
    15  H    6.227764   2.150106   3.106242   1.091174   0.000000
    16  H    6.238281   2.147109   3.093885   1.091402   1.756025
    17  H    7.286455   2.140610   2.516721   1.085358   1.780004
    18  O    8.872303   3.580361   2.878624   3.501898   4.215556
    19  H    7.933701   2.716318   1.912366   2.943653   3.709484
    20  H    9.323586   4.138986   3.318054   4.176374   4.751383
                   16         17         18         19         20
    16  H    0.000000
    17  H    1.777191   0.000000
    18  O    4.156040   2.611720   0.000000
    19  H    3.662261   2.284870   0.973344   0.000000
    20  H    4.951747   3.316540   0.960984   1.537709   0.000000
 Stoichiometry    C8H10O2
 Framework group  C1[X(C8H10O2)]
 Deg. of freedom    54
 Full point group                 C1      NOp   1
 Largest Abelian subgroup         C1      NOp   1
 Largest concise Abelian subgroup C1      NOp   1
                         Standard orientation:                         
 ---------------------------------------------------------------------
 Center     Atomic      Atomic             Coordinates (Angstroms)
 Number     Number       Type             X           Y           Z
 ---------------------------------------------------------------------
      1          6           0        2.705180    1.020759   -0.001056
      2          6           0        1.324645    1.175140    0.003513
      3          6           0        0.486276    0.055630    0.004853
      4          6           0        1.059079   -1.221456    0.000870
      5          6           0        2.436074   -1.374469   -0.003260
      6          6           0        3.262072   -0.252931   -0.004112
      7          1           0        3.345192    1.892445   -0.002584
      8          1           0        0.907866    2.171206    0.004815
      9          1           0        0.403745   -2.080447    0.000247
     10          1           0        2.869575   -2.365277   -0.006456
     11          1           0        4.337185   -0.372707   -0.007732
     12          6           0       -1.003933    0.171231    0.007508
     13          8           0       -1.689235   -0.841549    0.001755
     14          6           0       -1.634277    1.544785    0.011685
     15          1           0       -1.303547    2.111912    0.883262
     16          1           0       -1.322891    2.103507   -0.872637
     17          1           0       -2.715967    1.456132    0.021036
     18          8           0       -4.534645   -0.415067   -0.088997
     19          1           0       -3.591420   -0.652981   -0.055504
     20          1           0       -4.949394   -0.922996    0.613486
 ---------------------------------------------------------------------
 Rotational constants (GHZ):      3.4529515      0.6067371      0.5182301
 Standard basis: Aug-CC-pVTZ (5D, 7F)
 There are   800 symmetry adapted cartesian basis functions of A   symmetry.
 There are   690 symmetry adapted basis functions of A   symmetry.
   690 basis functions,   990 primitive gaussians,   800 cartesian basis functions
    37 alpha electrons       37 beta electrons
       nuclear repulsion energy       483.2501723704 Hartrees.
 NAtoms=   20 NActive=   20 NUniq=   20 SFac= 1.00D+00 NAtFMM=   60 NAOKFM=F Big=F
 Integral buffers will be    131072 words long.
 Raffenetti 2 integral format.
 Two-electron integral symmetry is turned on.
 Nuclear repulsion after empirical dispersion term =      483.2364058290 Hartrees.
 One-electron integrals computed using PRISM.
 NBasis=   690 RedAO= T EigKep=  1.15D-06  NBF=   690
 NBsUse=   688 1.00D-06 EigRej=  6.15D-07 NBFU=   688
 Initial guess from the checkpoint file:  "98-86-2.chk"
 B after Tr=     0.000000    0.000000    0.000000
         Rot=    0.999985   -0.002206    0.000127    0.005021 Ang=  -0.63 deg.
 ExpMin= 2.53D-02 ExpMax= 1.53D+04 ExpMxC= 5.22D+02 IAcc=3 IRadAn=         5 AccDes= 0.00D+00
 Harris functional with IExCor=  402 and IRadAn=       5 diagonalized for initial guess.
 HarFok:  IExCor=  402 AccDes= 0.00D+00 IRadAn=         5 IDoV= 1 UseB2=F ITyADJ=14
 ICtDFT=  3500011 ScaDFX=  1.000000  1.000000  1.000000  1.000000
 FoFCou: FMM=F IPFlag=           0 FMFlag=      100000 FMFlg1=           0
         NFxFlg=           0 DoJE=T BraDBF=F KetDBF=T FulRan=T
         wScrn=  0.000000 ICntrl=     500 IOpCl=  0 I1Cent=   200000004 NGrid=           0
         NMat0=    1 NMatS0=      1 NMatT0=    0 NMatD0=    1 NMtDS0=    0 NMtDT0=    0
 Petite list used in FoFCou.
 Requested convergence on RMS density matrix=1.00D-08 within 128 cycles.
 Requested convergence on MAX density matrix=1.00D-06.
 Requested convergence on             energy=1.00D-06.
 No special actions if energy rises.
 SCF Done:  E(RB3LYP) =  -461.527975601     A.U. after   11 cycles
            NFock= 11  Conv=0.36D-08     -V/T= 2.0062
 Calling FoFJK, ICntrl=      2127 FMM=F ISym2X=0 I1Cent= 0 IOpClX= 0 NMat=1 NMatS=1 NMatT=0.
 ***** Axes restored to original set *****
 -------------------------------------------------------------------
 Center     Atomic                   Forces (Hartrees/Bohr)
 Number     Number              X              Y              Z
 -------------------------------------------------------------------
      1        6          -0.000195674   -0.000090482    0.000008183
      2        6          -0.000197913   -0.000527239    0.000009175
      3        6           0.000089187    0.000596887    0.000071421
      4        6           0.000039479    0.000147618    0.000020060
      5        6          -0.000141107    0.000126236   -0.000003290
      6        6           0.000093443   -0.000017465   -0.000007963
      7        1          -0.000065568    0.000020507    0.000002551
      8        1          -0.000093472    0.000295416    0.000017375
      9        1           0.000107198   -0.000019755   -0.000000575
     10        1          -0.000084649   -0.000000070    0.000001114
     11        1          -0.000013506    0.000016980    0.000001924
     12        6           0.001256595   -0.002250385   -0.000338673
     13        8          -0.001264381    0.003558147    0.000160682
     14        6           0.000607612   -0.001006863   -0.000300398
     15        1          -0.000208509   -0.000089309    0.000136168
     16        1          -0.000078586   -0.000029103   -0.000058457
     17        1          -0.000531570   -0.000325806    0.000201059
     18        8           0.001222074    0.000672522    0.000400256
     19        1          -0.000751093   -0.001090867    0.000122119
     20        1           0.000210440    0.000013032   -0.000442729
 -------------------------------------------------------------------
 Cartesian Forces:  Max     0.003558147 RMS     0.000683904

 GradGradGradGradGradGradGradGradGradGradGradGradGradGradGradGradGradGrad
 Berny optimization.
 Using GEDIIS/GDIIS optimizer.
 FormGI is forming the generalized inverse of G from B-inverse, IUseBI=4.
 Internal  Forces:  Max     0.002892550 RMS     0.000584520
 Search for a local minimum.
 Step number   2 out of a maximum of   98
 All quantities printed in internal units (Hartrees-Bohrs-Radians)
 Mixed Optimization -- En-DIIS/RFO-DIIS
 Update second derivatives using D2CorX and points    1    2
 DE= -4.85D-04 DEPred=-7.07D-04 R= 6.86D-01
 TightC=F SS=  1.41D+00  RLast= 3.64D-01 DXNew= 5.0454D-01 1.0913D+00
 Trust test= 6.86D-01 RLast= 3.64D-01 DXMaxT set to 5.05D-01
 ITU=  1  0
 Use linear search instead of GDIIS.
     Eigenvalues ---    0.00212   0.00679   0.00908   0.01328   0.01417
     Eigenvalues ---    0.01760   0.01923   0.02151   0.02192   0.02207
     Eigenvalues ---    0.02213   0.02227   0.02233   0.02239   0.02254
     Eigenvalues ---    0.04039   0.05196   0.07306   0.07394   0.15209
     Eigenvalues ---    0.16000   0.16000   0.16000   0.16000   0.16000
     Eigenvalues ---    0.16000   0.16000   0.16000   0.16068   0.21999
     Eigenvalues ---    0.22002   0.23363   0.24847   0.25000   0.26978
     Eigenvalues ---    0.32230   0.33806   0.34828   0.34908   0.35433
     Eigenvalues ---    0.36004   0.36077   0.36101   0.36169   0.36240
     Eigenvalues ---    0.42564   0.42876   0.46560   0.46754   0.47399
     Eigenvalues ---    0.48059   0.54424   0.56051   0.96234
 RFO step:  Lambda=-2.34688032D-04 EMin= 2.12424949D-03
 Quartic linear search produced a step of -0.13941.
 Iteration  1 RMS(Cart)=  0.02702108 RMS(Int)=  0.00264098
 Iteration  2 RMS(Cart)=  0.00345674 RMS(Int)=  0.00002684
 Iteration  3 RMS(Cart)=  0.00003667 RMS(Int)=  0.00000364
 Iteration  4 RMS(Cart)=  0.00000000 RMS(Int)=  0.00000364
 Variable       Old X    -DE/DX   Delta X   Delta X   Delta X     New X
                                 (Linear)    (Quad)   (Total)
    R1        2.62511  -0.00022  -0.00025   0.00014  -0.00011   2.62500
    R2        2.62694  -0.00004  -0.00026   0.00051   0.00025   2.62719
    R3        2.04357  -0.00002  -0.00062   0.00127   0.00066   2.04423
    R4        2.64303  -0.00050  -0.00082   0.00083   0.00001   2.64303
    R5        2.04043   0.00031  -0.00041   0.00159   0.00119   2.04162
    R6        2.64499  -0.00019  -0.00073   0.00120   0.00047   2.64546
    R7        2.82455  -0.00050  -0.00143   0.00180   0.00038   2.82493
    R8        2.61817  -0.00019  -0.00023   0.00016  -0.00007   2.61810
    R9        2.04172  -0.00005  -0.00054   0.00104   0.00050   2.04222
   R10        2.63217  -0.00003  -0.00023   0.00048   0.00025   2.63241
   R11        2.04373  -0.00003  -0.00062   0.00124   0.00063   2.04436
   R12        2.04425  -0.00002  -0.00061   0.00127   0.00067   2.04491
   R13        2.31088  -0.00230  -0.00046  -0.00107  -0.00153   2.30934
   R14        2.85593  -0.00122  -0.00124  -0.00060  -0.00184   2.85408
   R15        3.61385  -0.00072  -0.00270  -0.00616  -0.00886   3.60499
   R16        2.06202   0.00000  -0.00054   0.00116   0.00062   2.06264
   R17        2.06245   0.00001  -0.00056   0.00123   0.00067   2.06312
   R18        2.05103   0.00056  -0.00030   0.00198   0.00169   2.05271
   R19        1.83935  -0.00123  -0.00146   0.00121  -0.00025   1.83910
   R20        1.81600  -0.00042  -0.00094   0.00138   0.00044   1.81644
    A1        2.09435   0.00004  -0.00009   0.00035   0.00027   2.09461
    A2        2.09276  -0.00008   0.00003  -0.00050  -0.00047   2.09229
    A3        2.09608   0.00005   0.00006   0.00014   0.00020   2.09628
    A4        2.10221   0.00001  -0.00033   0.00066   0.00032   2.10253
    A5        2.07845  -0.00003   0.00090  -0.00207  -0.00117   2.07728
    A6        2.10252   0.00003  -0.00057   0.00142   0.00085   2.10337
    A7        2.07718   0.00013   0.00077  -0.00130  -0.00054   2.07665
    A8        2.13616  -0.00056  -0.00103   0.00035  -0.00068   2.13548
    A9        2.06984   0.00043   0.00026   0.00095   0.00121   2.07106
   A10        2.10309  -0.00006  -0.00043   0.00066   0.00023   2.10333
   A11        2.06825   0.00013  -0.00017   0.00101   0.00085   2.06910
   A12        2.11184  -0.00007   0.00059  -0.00167  -0.00108   2.11076
   A13        2.09493   0.00003  -0.00003   0.00026   0.00023   2.09516
   A14        2.09390  -0.00009   0.00001  -0.00054  -0.00053   2.09337
   A15        2.09436   0.00007   0.00002   0.00028   0.00030   2.09466
   A16        2.09461  -0.00013   0.00011  -0.00063  -0.00052   2.09409
   A17        2.09393   0.00005  -0.00006   0.00025   0.00019   2.09412
   A18        2.09464   0.00008  -0.00004   0.00038   0.00033   2.09497
   A19        2.08825   0.00267   0.00104   0.00683   0.00787   2.09612
   A20        2.07846   0.00022  -0.00059   0.00203   0.00144   2.07990
   A21        2.11647  -0.00289  -0.00045  -0.00885  -0.00930   2.10717
   A22        2.06678  -0.00043  -0.00507   0.00862   0.00355   2.07033
   A23        1.92641   0.00007  -0.00046   0.00138   0.00092   1.92732
   A24        1.92201   0.00016  -0.00035   0.00221   0.00186   1.92386
   A25        1.91927  -0.00049  -0.00114  -0.00079  -0.00193   1.91734
   A26        1.86989   0.00013   0.00019   0.00151   0.00170   1.87159
   A27        1.91521  -0.00002   0.00086  -0.00315  -0.00228   1.91293
   A28        1.91043   0.00017   0.00095  -0.00114  -0.00019   1.91024
   A29        1.83784  -0.00011  -0.00231   0.00439   0.00208   1.83993
   A30        2.99358  -0.00174  -0.01452  -0.07035  -0.08487   2.90871
   A31        3.13287  -0.00006   0.00897  -0.02204  -0.01306   3.11981
    D1       -0.00018   0.00000  -0.00001  -0.00001  -0.00001  -0.00020
    D2       -3.14050  -0.00001  -0.00004  -0.00034  -0.00037  -3.14088
    D3        3.14103   0.00000   0.00001   0.00007   0.00008   3.14111
    D4        0.00071  -0.00001  -0.00002  -0.00026  -0.00028   0.00043
    D5        0.00055  -0.00001  -0.00001  -0.00019  -0.00020   0.00035
    D6        3.14153   0.00000   0.00000   0.00005   0.00005   3.14158
    D7       -3.14066  -0.00001  -0.00002  -0.00027  -0.00029  -3.14095
    D8        0.00031   0.00000  -0.00001  -0.00003  -0.00004   0.00027
    D9       -0.00053   0.00001   0.00002   0.00030   0.00032  -0.00021
   D10       -3.13984  -0.00001  -0.00007  -0.00041  -0.00048  -3.14031
   D11        3.13977   0.00002   0.00006   0.00063   0.00069   3.14046
   D12        0.00047   0.00000  -0.00003  -0.00008  -0.00011   0.00036
   D13        0.00089  -0.00001  -0.00003  -0.00039  -0.00042   0.00047
   D14       -3.13981  -0.00001  -0.00002  -0.00033  -0.00035  -3.14016
   D15        3.14028   0.00001   0.00006   0.00028   0.00034   3.14063
   D16       -0.00042   0.00001   0.00007   0.00034   0.00041   0.00000
   D17        3.13516   0.00005   0.00040   0.00301   0.00342   3.13858
   D18       -0.00218  -0.00001   0.00023  -0.00113  -0.00091  -0.00309
   D19       -0.00415   0.00003   0.00031   0.00231   0.00263  -0.00152
   D20       -3.14150  -0.00003   0.00014  -0.00182  -0.00170   3.13999
   D21       -0.00053   0.00000   0.00001   0.00020   0.00021  -0.00032
   D22       -3.14145   0.00000   0.00001   0.00007   0.00008  -3.14137
   D23        3.14015   0.00000   0.00000   0.00014   0.00014   3.14029
   D24       -0.00077   0.00000   0.00000   0.00001   0.00001  -0.00076
   D25       -0.00020   0.00000   0.00001   0.00010   0.00010  -0.00010
   D26       -3.14117   0.00000  -0.00001  -0.00015  -0.00015  -3.14132
   D27        3.14072   0.00001   0.00001   0.00023   0.00024   3.14095
   D28       -0.00025   0.00000   0.00000  -0.00002  -0.00002  -0.00027
   D29       -3.10537  -0.00015   0.00128  -0.00730  -0.00602  -3.11139
   D30        0.03188  -0.00007   0.00145  -0.00304  -0.00159   0.03029
   D31       -1.01845  -0.00015   0.00127  -0.00139  -0.00013  -1.01859
   D32        1.04258   0.00015   0.00100   0.00268   0.00368   1.04625
   D33       -3.13393   0.00015   0.00123   0.00216   0.00338  -3.13054
   D34        2.12746  -0.00023   0.00109  -0.00564  -0.00454   2.12292
   D35       -2.09470   0.00007   0.00083  -0.00157  -0.00073  -2.09542
   D36        0.01199   0.00007   0.00105  -0.00208  -0.00102   0.01096
   D37       -2.24994  -0.00041   0.04703  -0.20768  -0.16065  -2.41059
         Item               Value     Threshold  Converged?
 Maximum Force            0.002893     0.000450     NO 
 RMS     Force            0.000585     0.000300     NO 
 Maximum Displacement     0.154846     0.001800     NO 
 RMS     Displacement     0.029094     0.001200     NO 
 Predicted change in Energy=-1.524183D-04
 GradGradGradGradGradGradGradGradGradGradGradGradGradGradGradGradGradGrad

                          Input orientation:                          
 ---------------------------------------------------------------------
 Center     Atomic      Atomic             Coordinates (Angstroms)
 Number     Number       Type             X           Y           Z
 ---------------------------------------------------------------------
      1          6           0        2.693806    1.057470   -0.024582
      2          6           0        1.311361    1.192644   -0.012615
      3          6           0        0.488447    0.061963    0.010756
      4          6           0        1.079453   -1.207034    0.021627
      5          6           0        2.458360   -1.340918    0.009985
      6          6           0        3.268876   -0.208214   -0.013101
      7          1           0        3.321287    1.938453   -0.043106
      8          1           0        0.881575    2.183805   -0.022487
      9          1           0        0.437014   -2.075883    0.038328
     10          1           0        2.905285   -2.326077    0.018330
     11          1           0        4.345873   -0.312988   -0.022444
     12          6           0       -1.003285    0.158326    0.022716
     13          8           0       -1.682891   -0.857177    0.039994
     14          6           0       -1.652960    1.521735    0.013283
     15          1           0       -1.324864    2.106040    0.874862
     16          1           0       -1.359961    2.073338   -0.882160
     17          1           0       -2.733786    1.415563    0.035189
     18          8           0       -4.504776   -0.377517   -0.032915
     19          1           0       -3.582548   -0.686161    0.004109
     20          1           0       -4.990034   -0.949474    0.568190
 ---------------------------------------------------------------------
                    Distance matrix (angstroms):
                    1          2          3          4          5
     1  C    0.000000
     2  C    1.389089   0.000000
     3  C    2.419895   1.398633   0.000000
     4  C    2.781412   2.411101   1.399915   0.000000
     5  C    2.410165   2.781196   2.418395   1.385440   0.000000
     6  C    1.390250   2.407128   2.793627   2.406744   1.393013
     7  H    1.081761   2.144052   3.398397   3.863172   3.391421
     8  H    2.133733   1.080377   2.158210   3.396895   3.861473
     9  H    3.861991   3.383836   2.138642   1.080697   2.151005
    10  H    3.390422   3.863023   3.397631   2.141478   1.081827
    11  H    2.146506   3.387519   3.875749   3.386851   2.149510
    12  C    3.805151   2.535478   1.494888   2.490383   3.772384
    13  O    4.777607   3.629061   2.358046   2.784472   4.169517
    14  C    4.371653   2.982645   2.591633   3.861649   5.009765
    15  H    4.249495   2.927728   2.865838   4.181532   5.190599
    16  H    4.266199   2.944095   2.873941   4.186695   5.199292
    17  H    5.439720   4.051567   3.495084   4.628066   5.878538
    18  O    7.340221   6.024390   5.012716   5.645768   7.029598
    19  H    6.514115   5.242188   4.139170   4.691042   6.076291
    20  H    7.963705   6.680837   5.598882   6.099487   7.479532
                    6          7          8          9         10
     6  C    0.000000
     7  H    2.147517   0.000000
     8  H    3.379504   2.452104   0.000000
     9  H    3.392680   4.943739   4.283255   0.000000
    10  H    2.149076   4.285213   4.943289   2.481000   0.000000
    11  H    1.082122   2.473700   4.270285   4.288435   2.475779
    12  C    4.288005   4.677083   2.767183   2.658269   4.631328
    13  O    4.994394   5.732735   3.978437   2.445249   4.817623
    14  C    5.217076   4.991990   2.619825   4.160706   5.965172
    15  H    5.219837   4.738931   2.383203   4.614378   6.186394
    16  H    5.233247   4.757760   2.403273   4.614374   6.193388
    17  H    6.218596   6.078112   3.696533   4.716373   6.767516
    18  O    7.775520   8.161561   5.964332   5.225974   7.662148
[...]
 0179,-0.00205536,-0.00363956,0.00029528,-0.00089442,-0.00063818,0.0000
 1293,-0.00576149,-0.00043824,0.00031621,0.00070941,-0.00038865,-0.0001
 0286,0.11019693,-0.00057372,0.00108880,0.00011285,0.09986282,-0.294887
 21,0.00459722,0.01189163,-0.01841905,0.00029316,-0.00439637,-0.0022549
 6,0.00033871,-0.00060618,0.00040620,-0.00002584,0.00022111,0.00180802,
 0.00015084,0.00035231,0.00083509,-0.00014423,-0.10998207,0.31174336,0.
 00030826,-0.00059772,0.00480595,-0.00122436,0.00459542,-0.03839566,-0.
 00053941,0.00091701,0.00262233,0.00031420,0.00032085,0.00663579,0.0000
 1393,-0.00002478,-0.00106995,0.00029869,0.00016348,0.00760978,-0.00012
 199,-0.00012682,-0.00424753,0.00101646,-0.00515617,0.02574439,-0.00058
 804,0.00091899,-0.00003650,-0.00088235,0.00313987,0.00007701,0.0131643
 2,0.00871951,-0.00042747,-0.15633162,-0.13388902,0.00616302,-0.0125194
 9,-0.02529668,0.00107193,-0.00499507,0.00174905,0.00024602,0.00000868,
 -0.00007666,-0.00002211,0.00054257,0.00081776,-0.00002094,0.16439868,0
 .00072879,0.00014084,-0.00005064,0.00375782,-0.00370481,0.00017820,-0.
 01758281,-0.01959906,0.00103897,-0.13296336,-0.24131979,0.00832399,0.0
 0443388,0.00797240,-0.00017745,0.00160057,0.00114184,0.00014173,-0.000
 10111,0.00001538,-0.00002594,-0.00096205,-0.00094774,0.00006250,0.1436
 6623,0.25477962,-0.00003173,-0.00005490,-0.00113006,0.00006276,0.00019
 211,0.00621625,0.00026542,0.00044603,0.00450408,0.00613645,0.00833672,
 -0.04157492,0.00028372,0.00050090,0.00506177,0.00025140,0.00013894,0.0
 0786657,-0.00002139,-0.00002670,-0.00104772,0.00002577,0.00002202,0.00
 057760,-0.00692084,-0.00928981,0.02781649,-0.00159336,-0.00338700,0.00
 029098,-0.00101195,-0.00079355,0.00002239,-0.00562984,-0.00063147,0.00
 032621,-0.00871138,0.03043584,-0.00052510,-0.10562348,0.10295449,-0.00
 120435,0.01177545,-0.01840193,0.00030037,0.00039259,-0.00093941,0.0000
 2035,0.00006888,0.00009922,-0.00003047,0.00082331,-0.00041300,-0.00010
 851,0.10904498,-0.00418544,-0.00223303,0.00034535,-0.00077258,0.000385
 94,-0.00001804,0.00025321,0.00192476,0.00015345,-0.00038637,0.00126924
 ,0.00007410,0.10291368,-0.28970895,0.00432091,0.01269630,-0.01856772,0
 .00029920,0.00066071,-0.00093950,0.00001464,0.00007215,-0.00003447,-0.
 00003161,0.00035230,0.00074074,-0.00014547,-0.11094839,0.30646532,0.00
 031252,0.00032751,0.00718788,0.00002029,-0.00001769,-0.00095201,0.0003
 0067,0.00017553,0.00793123,0.00029505,-0.00062937,0.00372772,-0.001204
 83,0.00431741,-0.03860053,-0.00052426,0.00100873,0.00354029,-0.0000223
 4,0.00005111,0.00017508,-0.00002979,-0.00003236,-0.00115657,-0.0001280
 2,-0.00012722,-0.00442017,0.00105918,-0.00490834,0.02636179,-0.0084799
 7,-0.00113793,0.00032432,0.00104308,0.00252567,0.00008055,0.00079895,-
 0.00024673,-0.00003316,-0.00013808,-0.00364029,0.00026631,-0.01357193,
 0.00445292,0.00029268,-0.33268646,0.02764582,0.00592698,0.00072173,0.0
 0042954,-0.00011973,-0.00048043,-0.00015185,0.00001291,-0.00061183,0.0
 0035536,0.00000005,0.00072863,-0.00043480,-0.00009372,0.35290085,0.029
 80218,0.00213667,-0.00061716,0.00198250,-0.00500784,0.00028894,-0.0002
 0275,-0.00137353,0.00001644,-0.00305593,-0.00401221,0.00036993,-0.0264
 0170,0.00752192,0.00052117,0.02756651,-0.06326886,-0.00000646,-0.00045
 814,0.00074612,-0.00011678,0.00141130,-0.00007077,-0.00003303,-0.00115
 680,0.00025417,0.00001458,0.00046429,0.00072905,-0.00013350,-0.0298450
 9,0.06219075,-0.00049922,0.00008710,0.00446262,0.00009501,0.00027730,0
 .00751066,-0.00003662,0.00001638,-0.00095395,0.00025048,0.00038325,0.0
 0728255,0.00111377,-0.00018076,0.00448326,0.00592997,-0.00000824,-0.04
 008565,-0.00009596,-0.00013697,-0.00402643,-0.00002863,0.00000274,-0.0
 0010095,0.00004025,-0.00002046,-0.00019533,-0.00011716,-0.00011334,-0.
 00388578,-0.00663870,-0.00027617,0.02648438,0.00534138,-0.00411054,0.0
 0017919,-0.02195595,-0.01407783,0.00086171,-0.16570256,0.02447656,0.00
 130167,-0.02811191,0.02246569,0.00010108,0.00705490,0.00357052,-0.0000
 8591,0.00085361,-0.00081313,-0.00002617,0.00079609,0.00047617,-0.00001
 795,0.00068486,0.00213224,-0.00016336,0.00006369,-0.00290581,-0.000008
 61,0.00047975,-0.00051788,0.00000988,-0.00001632,-0.00009862,-0.000025
 20,0.60731287,-0.00464328,-0.00452168,0.00045298,-0.02726151,0.0083525
 9,0.00037042,0.03882096,-0.11246536,0.00001187,0.03009420,0.00972884,-
 0.00087613,0.00568288,-0.00687673,0.00025261,-0.00140328,-0.00400468,0
 .00010561,-0.00142233,0.00023863,0.00004093,-0.00081116,-0.00120758,-0
 .00005766,0.00065424,-0.00274256,-0.00004111,0.00203116,-0.00018734,-0
 .00003363,-0.00001933,-0.00020062,-0.00002743,0.16484090,0.78055856,0.
 00019219,0.00043932,0.00834581,0.00121363,0.00006629,-0.00084740,0.000
 91804,0.00034375,-0.07917524,-0.00010885,-0.00069814,0.00257320,-0.000
 13620,0.00030378,0.00754097,-0.00000809,0.00009468,-0.00110158,0.00003
 315,-0.00000240,0.00054895,-0.00008516,-0.00012345,-0.00403918,-0.0001
 0665,0.00003672,-0.00387302,-0.00005954,0.00002277,0.00024454,-0.00002
 850,-0.00002764,-0.00132215,-0.01305838,-0.01866739,0.22756301,-0.0043
 8816,-0.00033448,0.00006702,-0.00371388,0.00972646,-0.00010367,-0.0537
 5153,-0.04967313,0.00299318,-0.00036282,-0.00480046,0.00014533,0.00025
 087,-0.00202319,0.00002836,-0.00098922,-0.00186571,0.00007268,-0.00115
 970,-0.00003998,0.00001918,0.00025455,-0.00062466,0.00002476,-0.003048
 18,0.00014689,0.00006440,-0.00019633,0.00027034,0.00000033,-0.00018600
 ,-0.00003539,0.00001012,-0.27191491,-0.25636990,0.01150761,0.32868462,
 -0.00144289,0.00135031,-0.00005037,0.00249080,0.00426706,-0.00008410,-
 0.04053203,0.00092892,0.00137211,0.00654175,-0.00932186,0.00010853,-0.
 00264575,0.00124082,0.00000794,0.00065389,0.00038481,-0.00002396,-0.00
 031590,-0.00003888,-0.00000095,0.00063466,0.00048485,-0.00001197,0.001
 02437,0.00280417,-0.00010122,-0.00048757,0.00014967,0.00001024,0.00006
 625,0.00026962,-0.00000411,-0.24710013,-0.49736716,0.01715193,0.299139
 77,0.56318181,0.00010045,-0.00007662,-0.00174199,0.00008662,-0.0002461
 8,0.00323912,0.00271675,0.00157491,0.01792816,-0.00015355,0.00036834,0
 .00037830,0.00004529,-0.00001091,-0.00077879,0.00000510,0.00003374,-0.
 00001632,0.00002563,-0.00000808,-0.00034715,-0.00001058,0.00001457,0.0
 0055323,0.00004041,-0.00008020,-0.00005205,0.00002033,-0.00000490,0.00
 014050,0.00000729,-0.00000036,0.00023743,0.01124243,0.01737784,-0.0698
 0595,-0.01482771,-0.02116388,0.02949755,0.00034583,0.00041266,-0.00005
 874,-0.00267732,0.00056780,0.00001697,-0.00947099,0.02782818,-0.000195
 80,-0.00556234,-0.00167033,0.00020338,-0.00020710,0.00191867,-0.000060
 93,-0.00016719,0.00016362,0.00000840,-0.00007314,-0.00006274,0.0000036
 5,-0.00203731,0.00084141,0.00006596,-0.00001523,0.00016888,-0.00000300
 ,-0.00053136,0.00006086,0.00000470,-0.00007209,0.00004436,0.00000593,-
 0.12562952,0.05216067,-0.00057861,0.01706944,-0.02520338,0.00094334,0.
 58745417,-0.00025427,0.00003959,-0.00004683,0.00107319,-0.00109961,-0.
 00002807,0.00609719,0.00166417,0.00023738,-0.00309343,0.00157970,0.000
 07073,0.00103204,0.00110065,-0.00007512,0.00007511,-0.00075125,0.00003
 133,0.00004078,0.00003863,-0.00000147,0.00003088,0.00035630,0.00004041
 ,-0.00036807,0.00028179,0.00000306,-0.00014818,0.00004702,-0.00000459,
 0.00000529,0.00001168,0.00000544,0.04578121,-0.14218785,0.00042088,-0.
 00273325,-0.05806347,0.00235832,0.04940199,0.47325449,-0.00003763,-0.0
 0006252,-0.00170344,0.00001465,-0.00000446,-0.00121010,0.00039878,-0.0
 0025571,0.01579312,0.00025373,0.00002986,0.00159893,-0.00004592,-0.000
 09852,-0.00080767,0.00001199,0.00003062,0.00039406,0.00000041,0.000000
 47,0.00001157,0.00008177,0.00000862,0.00168367,0.00001452,-0.00000900,
 0.00010839,0.00001026,-0.00000927,-0.00025410,0.00000710,0.00000388,0.
 00021905,-0.00035022,0.00022539,-0.08794539,0.00029664,0.00286856,0.02
 678152,-0.00307607,0.00012221,0.51732905,0.00017928,-0.00017262,0.0003
 5273,-0.00114322,0.00067771,0.00041541,-0.00145782,0.00013421,-0.00182
 592,0.00067852,-0.00054915,-0.00019413,-0.00047660,-0.00032053,0.00018
 896,0.00000765,0.00037698,-0.00004718,-0.00001046,-0.00000511,0.000003
 48,-0.00175413,0.00002996,0.00053931,0.00005020,-0.00004907,-0.0000210
 9,0.00001176,-0.00000591,0.00003755,0.00001569,-0.00001678,-0.00007763
 ,0.00586643,0.00289265,0.01430378,0.00046290,0.00186431,-0.00179068,-0
 .07197704,-0.04050101,-0.06387939,0.07415953,0.00039874,-0.00008739,-0
 .00004559,-0.00018171,0.00025651,0.00011434,0.00049198,0.00005622,0.00
 240388,0.00014259,-0.00018386,0.00029435,-0.00021480,0.00002402,-0.000
 15140,-0.00000102,0.00027481,0.00001440,-0.00000270,-0.00000345,0.0000
 0620,0.00001454,0.00026912,-0.00007156,-0.00011769,0.00007778,0.000037
 29,-0.00000405,-0.00001051,-0.00005534,-0.00000419,0.00001748,-0.00001
 094,-0.01367054,-0.01492528,-0.02555780,0.00286253,-0.00546457,0.00417
 219,-0.04202324,-0.11872207,-0.11585192,0.04724757,0.13009402,0.000073
 05,0.00041832,0.00023544,-0.00047639,-0.00092149,0.00042399,0.00007003
 ,-0.00057516,-0.00000965,0.00024471,0.00006252,0.00001317,-0.00008639,
 0.00001186,-0.00000467,-0.00009033,0.00005876,-0.00005198,0.00002058,-
 0.00001676,0.00000719,0.00040904,0.00056394,-0.00043550,-0.00005259,0.
 00005984,0.00002173,0.00001464,0.00000462,0.00000481,-0.00002358,0.000
 04849,-0.00004249,0.00045633,0.00144987,0.00149260,0.00048520,0.001157
 34,-0.00110370,-0.06363532,-0.11242323,-0.20211217,0.07059404,0.123034
 48,0.22117720,0.00016080,-0.00021154,-0.00033479,-0.00111105,0.0006947
 2,-0.00037467,-0.00137734,0.00027598,0.00188735,0.00067305,-0.00054179
 ,0.00019734,-0.00048082,-0.00032900,-0.00015144,0.00001401,0.00037627,
 0.00002438,-0.00001161,-0.00000457,-0.00000247,-0.00177590,-0.00002979
 ,-0.00047906,0.00005395,-0.00005056,0.00002288,0.00000901,-0.00000805,
 -0.00003779,0.00002055,-0.00001507,0.00007470,0.00512636,0.00205825,-0
 .01464652,0.00049340,0.00187877,0.00160770,-0.06578031,-0.03152123,0.0
 5878052,0.00185160,0.00520082,-0.00830160,0.06729631,0.00039580,-0.000
 10968,0.00005065,-0.00015497,0.00030415,-0.00009813,0.00037802,-0.0000
 4389,-0.00243403,0.00011801,-0.00020176,-0.00029201,-0.00020246,0.0000
 2944,0.00016046,0.00000293,0.00026971,-0.00003315,-0.00000386,-0.00000
 275,-0.00000583,-0.00000079,0.00023073,0.00003463,-0.00011604,0.000071
 96,-0.00003452,-0.00000237,-0.00000745,0.00005654,-0.00000181,0.000015
 03,0.00000755,-0.01235618,-0.01354190,0.02707059,0.00262701,-0.0057041
 1,-0.00407106,-0.03291070,-0.10603808,0.11214536,0.00491877,0.00998029
 ,-0.01519307,0.03737972,0.11641153,-0.00009095,-0.00038754,0.00027637,
 0.00055238,0.00088792,0.00037597,-0.00002148,0.00056586,0.00000397,-0.
 00028382,-0.00002264,0.00003375,0.00012089,0.00000358,-0.00000856,0.00
 008720,-0.00009446,-0.00005315,-0.00001920,0.00001765,0.00000744,-0.00
 034268,-0.00059545,-0.00037361,0.00005674,-0.00006002,0.00002321,-0.00
 001434,-0.00000401,0.00000454,0.00002036,-0.00005061,-0.00004499,0.000
 04101,-0.00067344,0.00081460,-0.00071054,-0.00100221,-0.00088023,0.058
 66682,0.10860012,-0.22089676,0.00684674,0.01316402,-0.02137305,-0.0649
 5574,-0.11903429,0.24161381,0.00006642,-0.00004465,0.00000458,0.000488
 99,0.00011260,-0.00000910,0.00043455,0.00190718,-0.00001622,-0.0004805
 2,-0.00029933,0.00002649,-0.00002286,0.00022260,-0.00001056,0.00000954
 ,0.00003245,-0.00000151,-0.00002097,-0.00000264,0.00000083,0.00004672,
 0.00003877,-0.00001312,0.00000547,0.00006137,0.00000053,-0.00006046,0.
 00000590,0.00000005,-0.00000734,0.00000240,-0.00000062,-0.01553961,-0.
 00100385,0.00037851,0.00280463,-0.00227254,-0.00003852,-0.32168510,-0.
 02503753,0.00752199,-0.00599815,-0.00046621,0.00028040,-0.00469900,-0.
 00039681,0.00006054,0.34556263,-0.00002130,0.00041463,-0.00000594,-0.0
 0072290,-0.00109983,0.00005059,0.00068139,-0.00577799,0.00019599,0.001
 56529,0.00050953,-0.00003702,0.00015419,-0.00044103,0.00000168,-0.0000
 8391,-0.00010084,0.00000396,0.00005063,0.00000062,-0.00000086,-0.00016
 006,0.00059473,-0.00002409,-0.00000630,-0.00001256,0.00000307,0.000166
 26,-0.00002138,-0.00000487,-0.00000102,0.00003907,-0.00000128,0.035294
 21,0.00280468,-0.00099350,-0.00176563,0.00265363,-0.00005711,-0.031204
 90,-0.05127931,0.00082358,-0.01656957,-0.00171054,0.00224707,-0.015179
 46,-0.00172528,-0.00129552,0.02867597,0.05827650,0.00000263,-0.0000023
 0,0.00019195,0.00000950,0.00002880,0.00019290,0.00000835,0.00016132,0.
 00163198,-0.00002678,0.00000473,0.00035439,-0.00000652,0.00000364,-0.0
 0018457,0.00000134,-0.00000012,-0.00002325,-0.00000066,0.00000025,0.00
 001182,-0.00000520,-0.00002572,-0.00043263,0.00000166,0.00000141,0.000
 08103,-0.00000458,-0.00000071,-0.00005048,-0.00000061,-0.00000147,-0.0
 0002169,-0.00065066,-0.00008379,-0.00137639,-0.00003907,-0.00004600,-0
 .00100727,0.00768880,0.00067180,-0.04852152,-0.02555616,-0.00137903,0.
 00174002,0.02676766,0.00156000,0.00045530,-0.00820688,-0.00094995,0.04
 685499,-0.00036134,0.00018835,0.00000379,-0.00013424,0.00066899,-0.000
 01379,-0.00188944,-0.00108602,0.00006602,-0.00011989,-0.00047955,0.000
 01552,-0.00006975,-0.00020959,0.00000791,-0.00023762,-0.00011369,0.000
 00741,-0.00013276,-0.00004502,0.00000413,0.00012685,0.00005031,-0.0000
 0426,0.00027521,-0.00019493,-0.00000238,-0.00009309,0.00007395,-0.0000
 0003,-0.00007332,-0.00000157,0.00000237,0.00373499,0.00742451,-0.00030
 154,-0.01710820,-0.00383024,0.00047589,0.00027118,-0.00132700,0.000029
 99,-0.00028189,-0.00020579,-0.00008104,-0.00027339,-0.00019946,0.00010
 519,-0.00097423,-0.00009174,0.00001928,0.63012033,0.00006402,0.0000888
 6,-0.00000178,0.00009183,-0.00015360,0.00000201,0.00003387,0.00072767,
 -0.00002153,-0.00015767,-0.00011710,0.00000828,-0.00002396,0.00007762,
 0.00000099,-0.00000695,0.00002446,-0.00000147,0.00001499,-0.00000191,-
 0.00000093,0.00006672,0.00009102,-0.00000567,-0.00004560,0.00000715,-0
 .00000382,-0.00002721,0.00000530,-0.00000041,-0.00000230,0.00001069,-0
 .00000044,0.00149583,-0.00296329,0.00003954,-0.00001425,0.00541128,-0.
 00011304,0.00081329,-0.00006913,0.00001467,-0.00037924,0.00007251,-0.0
 0001084,-0.00041549,0.00006471,0.00002948,-0.00134178,-0.00053758,-0.0
 0004294,0.07973438,0.45516441,0.00000481,-0.00000201,0.00006088,0.0000
 0174,-0.00000503,0.00000180,0.00002687,-0.00001373,-0.00047653,0.00000
 418,0.00000659,0.00005645,0.00000310,0.00000325,0.00003105,0.00000382,
 0.00000053,-0.00000322,0.00000139,0.00000020,-0.00000870,-0.00000548,-
 0.00000389,-0.00005216,-0.00000686,0.00000154,-0.00007521,0.00000112,-
 0.00000155,-0.00002073,0.00000121,-0.00000085,-0.00001092,-0.00014903,
 -0.00006267,-0.00032632,0.00050679,-0.00005484,0.00375121,0.00005960,0
 .00011426,0.00050192,0.00029522,0.00012922,0.00001742,-0.00023282,-0.0
 0011156,0.00003800,-0.00000759,-0.00007642,-0.00061577,-0.03453737,-0.
 05399542,0.01229545,0.00060244,-0.00022898,-0.00000646,0.00017013,-0.0
 0105045,0.00002300,0.00306513,0.00199122,-0.00014101,0.00017341,0.0006
 3247,-0.00001926,0.00003171,0.00033814,-0.00001030,0.00034226,0.000230
 47,-0.00001367,0.00018700,0.00005316,-0.00000568,-0.00009744,0.0000337
 2,0.00000104,-0.00036134,0.00029794,0.00000149,0.00011824,-0.00009501,
 0.00000010,0.00008681,0.00001352,-0.00000253,-0.00837018,-0.01382237,0
 .00056512,0.00825745,0.00832780,-0.00036178,0.00024712,0.00147990,-0.0
 0002921,-0.00017086,0.00051294,0.00006335,-0.00016847,0.00050522,-0.00
 008184,0.00066329,-0.00056470,-0.00000059,-0.40646705,0.11670572,0.003
 21016,0.42431738,-0.00005969,-0.00009583,-0.00000035,-0.00010287,0.000
 16685,0.,-0.00004886,-0.00085076,0.00006287,0.00019126,0.00011890,-0.0
 0001017,0.00002265,-0.00007003,-0.00000040,0.00001357,-0.00002427,0.00
 000116,-0.00001150,0.00000418,-0.00000007,-0.00006388,-0.00009897,0.00
 000628,0.00003661,0.00002093,0.00000176,0.00002844,-0.00000545,0.00000
 005,0.00000599,-0.00000960,0.00000047,-0.00440158,0.00238705,0.0000459
 6,0.00358676,-0.00721902,-0.00008345,-0.00155429,-0.00026393,0.0000191
 4,0.00053578,-0.00001893,0.00001750,0.00053778,-0.00000822,-0.00004516
 ,-0.00023981,-0.00261816,0.00008593,0.17140050,-0.10665149,0.00410117,
 -0.12860250,0.10610289,-0.00001168,0.00000300,-0.00011233,0.00000366,0
 .00001714,0.00004527,-0.00001363,0.00002653,0.00131124,-0.00000265,-0.
 00001280,-0.00007631,-0.00000190,-0.00000718,-0.00003597,-0.00000550,-
 0.00000309,0.00001666,-0.00000211,-0.00000052,-0.00000535,0.00000406,0
 .00000101,0.00005762,0.00000607,-0.00000397,0.00005837,-0.00000208,0.0
 0000204,0.00001308,-0.00000162,0.00000038,0.00000381,0.00029429,0.0002
 1313,0.00068841,-0.00038491,-0.00014654,-0.00687677,0.00000414,-0.0000
 4192,-0.00132206,-0.00022002,-0.00023096,0.00000890,0.00022310,0.00022
 561,-0.00000823,-0.00001877,0.00005059,0.00102951,-0.00282437,0.006404
 72,-0.00832514,-0.00263152,-0.00486176,0.01393635,0.00002071,-0.000022
 65,-0.00000317,-0.00000038,-0.00002470,0.00000189,0.00004526,-0.000018
 15,0.00001757,-0.00002387,-0.00001228,-0.00000099,0.00001947,0.0000362
 5,-0.00000244,0.00001078,-0.00000240,0.00000109,0.00000732,0.00000698,
 -0.00000023,-0.00000614,-0.00000661,0.00000147,-0.00003295,0.00000497,
 0.00000267,-0.00000137,-0.00000498,0.00000045,0.00000750,0.00000080,-0
 .00000034,-0.00007397,0.00009662,0.00000601,-0.00145894,0.00120806,-0.
 00013443,0.00049829,-0.00003363,-0.00000392,-0.00001338,0.00002023,0.0
 0003588,-0.00002115,0.00001997,-0.00003728,-0.00059401,-0.00021647,-0.
 00000151,-0.20631233,-0.19660621,0.03081913,-0.02262705,-0.04127435,0.
 00558542,0.23055621,0.00002415,-0.00000335,-0.00000125,0.00000562,-0.0
 0004535,0.00000042,0.00011381,0.00014755,-0.00001666,0.00001120,0.0000
 2621,-0.00000135,-0.00001419,0.00001199,-0.00000080,0.00001212,0.00001
 599,-0.00000005,0.00000413,-0.00000063,0.00000042,0.00000478,0.0000125
 3,0.00000049,-0.00000607,0.00001774,0.00000106,0.00000445,-0.00000124,
 0.00000021,-0.00000149,0.00000120,-0.00000010,-0.00048110,-0.00087833,
 0.00003411,0.00192026,0.00005211,0.00001588,0.00024719,0.00010070,-0.0
 0000094,-0.00010895,0.00000383,0.00000594,-0.00009579,0.00000555,-0.00
 000327,0.00004590,0.00003114,0.00001415,-0.25175639,-0.35125158,0.0499
 7121,0.01324178,0.00913386,-0.00163540,0.23682857,0.34262007,-0.000001
 59,0.00000007,-0.00000868,-0.00000318,0.00000044,-0.00000308,-0.000018
 90,-0.00000685,-0.00006714,-0.00000202,0.00000086,-0.00001691,-0.00000
 175,-0.00000137,-0.00001053,-0.00000148,0.,-0.00000242,-0.00000071,-0.
 00000016,0.00000432,0.00000139,0.00000143,0.00001339,0.00000432,-0.000
 00019,0.00003300,0.00000030,0.00000016,0.00000892,-0.00000015,0.000000
 21,0.00000655,0.00004791,0.00002259,0.00000051,-0.00015570,0.00001348,
 0.00010320,-0.00006323,-0.00005470,0.00035192,0.00003499,-0.00001585,-
 0.00000927,-0.00006875,-0.00000376,-0.00000839,0.00004898,0.00007003,-
 0.00031031,0.03702727,0.04769859,-0.00683948,-0.00056042,0.00065911,-0
 .00040706,-0.03628729,-0.04838407,0.00716146\\0.00000046,-0.00000033,0
 .00000071,-0.00000042,0.00000047,0.00000127,0.00000003,-0.00000030,-0.
 00000442,0.00000003,-0.00000108,-0.00000148,0.00000030,-0.00000073,0.0
 0000023,-0.00000016,-0.00000029,0.00000036,0.00000025,-0.00000060,0.00
 000082,-0.00000046,-0.00000027,0.00000019,-0.00000015,0.00000040,0.000
 00005,-0.00000022,-0.00000011,-0.00000041,-0.00000021,-0.00000053,0.00
 000028,0.00000669,-0.00000346,-0.00000003,-0.00000912,0.00000754,0.000
 00755,-0.00000077,0.00000188,-0.00000471,-0.00000072,-0.00000078,0.000
 00141,0.00000212,0.00000085,0.00000209,-0.00000018,-0.00000114,0.00000
 025,-0.00000097,-0.00000051,-0.00000063,0.00000348,-0.00000234,-0.0000
 0284,0.00000003,0.00000132,-0.00000069\\\@


 TO DETECT ERRORS, THE PROGRAMMER MUST HAVE A CONNIVING MIND,
 ONE THAT DELIGHTS IN UNCOVERING FLAWS WHERE BEAUTY AND
 PERFECTION WERE ONCE THOUGHT TO LIE.

             -- THE PSYCHOLOGY OF COMPUTER PROGRAMMING
                GERALD M. WEINBERG
 Job cpu time:       1 days  1 hours  8 minutes 48.4 seconds.
 File lengths (MBytes):  RWF=    589 Int=      0 D2E=      0 Chk=     35 Scr=      1
 Normal termination of Gaussian 09 at Fri Oct  1 06:01:00 2021.
