 Entering Gaussian System, Link 0=/opt/cluster/programs/g09/g09_d.01/g09//g09
 Input=/home/kaeser/nnprojects/hydra_challenge/b3lypd3/98-85-1.com
 Output=/scratch/kaeser/98-85-1/98-85-1.out
 Initial command:
 /opt/cluster/programs/g09/g09_d.01/g09/l1.exe "/scratch/kaeser/98-85-1/Gau-193388.inp" -scrdir="/scratch/kaeser/98-85-1/"
 Entering Link 1 = /opt/cluster/programs/g09/g09_d.01/g09/l1.exe PID=    193389.
  
 Copyright (c) 1988,1990,1992,1993,1995,1998,2003,2009,2013,
            Gaussian, Inc.  All Rights Reserved.
  
 This is part of the Gaussian(R) 09 program.  It is based on
 the Gaussian(R) 03 system (copyright 2003, Gaussian, Inc.),
 the Gaussian(R) 98 system (copyright 1998, Gaussian, Inc.),
 the Gaussian(R) 94 system (copyright 1995, Gaussian, Inc.),
 the Gaussian 92(TM) system (copyright 1992, Gaussian, Inc.),
 the Gaussian 90(TM) system (copyright 1990, Gaussian, Inc.),
 the Gaussian 88(TM) system (copyright 1988, Gaussian, Inc.),
 the Gaussian 86(TM) system (copyright 1986, Carnegie Mellon
 University), and the Gaussian 82(TM) system (copyright 1983,
 Carnegie Mellon University). Gaussian is a federally registered
 trademark of Gaussian, Inc.
  
 This software contains proprietary and confidential information,
 including trade secrets, belonging to Gaussian, Inc.
  
 This software is provided under written license and may be
 used, copied, transmitted, or stored only in accord with that
 written license.
  
 The following legend is applicable only to US Government
 contracts under FAR:
  
                    RESTRICTED RIGHTS LEGEND
  
 Use, reproduction and disclosure by the US Government is
 subject to restrictions as set forth in subparagraphs (a)
 and (c) of the Commercial Computer Software - Restricted
 Rights clause in FAR 52.227-19.
  
 Gaussian, Inc.
 340 Quinnipiac St., Bldg. 40, Wallingford CT 06492
  
  
 ---------------------------------------------------------------
 Warning -- This program may not be used in any manner that
 competes with the business of Gaussian, Inc. or will provide
 assistance to any competitor of Gaussian, Inc.  The licensee
 of this program is prohibited from giving any competitor of
 Gaussian, Inc. access to this program.  By using this program,
 the user acknowledges that Gaussian, Inc. is engaged in the
 business of creating and licensing software in the field of
 computational chemistry and represents and warrants to the
 licensee that it is not a competitor of Gaussian, Inc. and that
 it will not use this program in any manner prohibited above.
 ---------------------------------------------------------------
  

 Cite this work as:
 Gaussian 09, Revision D.01,
 M. J. Frisch, G. W. Trucks, H. B. Schlegel, G. E. Scuseria, 
 M. A. Robb, J. R. Cheeseman, G. Scalmani, V. Barone, B. Mennucci, 
 G. A. Petersson, H. Nakatsuji, M. Caricato, X. Li, H. P. Hratchian, 
 A. F. Izmaylov, J. Bloino, G. Zheng, J. L. Sonnenberg, M. Hada, 
 M. Ehara, K. Toyota, R. Fukuda, J. Hasegawa, M. Ishida, T. Nakajima, 
 Y. Honda, O. Kitao, H. Nakai, T. Vreven, J. A. Montgomery, Jr., 
 J. E. Peralta, F. Ogliaro, M. Bearpark, J. J. Heyd, E. Brothers, 
 K. N. Kudin, V. N. Staroverov, T. Keith, R. Kobayashi, J. Normand, 
 K. Raghavachari, A. Rendell, J. C. Burant, S. S. Iyengar, J. Tomasi, 
 M. Cossi, N. Rega, J. M. Millam, M. Klene, J. E. Knox, J. B. Cross, 
 V. Bakken, C. Adamo, J. Jaramillo, R. Gomperts, R. E. Stratmann, 
 O. Yazyev, A. J. Austin, R. Cammi, C. Pomelli, J. W. Ochterski, 
 R. L. Martin, K. Morokuma, V. G. Zakrzewski, G. A. Voth, 
 P. Salvador, J. J. Dannenberg, S. Dapprich, A. D. Daniels, 
 O. Farkas, J. B. Foresman, J. V. Ortiz, J. Cioslowski, 
 and D. J. Fox, Gaussian, Inc., Wallingford CT, 2013.
 
 ******************************************
 Gaussian 09:  ES64L-G09RevD.01 24-Apr-2013
                30-Sep-2021 
 ******************************************
 %chk=98-85-1.chk
 %mem=5GB
 %nprocshared=4
 Will use up to    4 processors via shared memory.
 ----------------------------------------------------------------------
 # opt freq b3lyp/aug-cc-pvtz EmpiricalDispersion=GD3 geom=connectivity
 ----------------------------------------------------------------------
 1/14=-1,18=20,19=15,26=3,38=1,57=2/1,3;
 2/9=110,12=2,17=6,18=5,40=1/2;
 3/5=16,6=1,7=10,11=2,16=1,25=1,30=1,71=1,74=-5,124=31/1,2,3;
 4//1;
 5/5=2,38=5/2;
 6/7=2,8=2,9=2,10=2,28=1/1;
 7//1,2,3,16;
 1/14=-1,18=20,19=15,26=3/3(2);
 2/9=110/2;
 99//99;
 2/9=110/2;
 3/5=16,6=1,7=10,11=2,16=1,25=1,30=1,71=1,74=-5,124=31/1,2,3;
 4/5=5,16=3,69=1/1;
 5/5=2,38=5/2;
 7//1,2,3,16;
 1/14=-1,18=20,19=15,26=3/3(-5);
 2/9=110/2;
 6/7=2,8=2,9=2,10=2,19=2,28=1/1;
 99/9=1/99;
 -------------------
 Title Card Required
 -------------------
 Symbolic Z-matrix:
 Charge =  0 Multiplicity = 1
 C                     2.15872   0.38924  -1.04584 
 C                     0.78073   0.43331  -1.23939 
 C                    -0.09262   0.37362  -0.15711 
 C                     0.43636   0.2591    1.1291 
 C                     1.8092    0.21463   1.32586 
 C                     2.67571   0.28022   0.23802 
 H                     2.82318   0.4339   -1.89552 
 H                     0.37849   0.50901  -2.24013 
 H                    -0.24211   0.18619   1.9654 
 H                     2.20634   0.12654   2.32608 
 H                     3.74333   0.24216   0.39161 
 C                    -1.59204   0.41587  -0.36164 
 O                    -2.25684  -0.54842   0.43511 
 H                    -1.87597  -1.41045   0.21594 
 C                    -2.167     1.77115   0.01004 
 H                    -1.9699    1.9792    1.05993 
 H                    -1.71731   2.55758  -0.59238 
 H                    -3.24287   1.7692   -0.14868 
 O                    -0.52912  -2.72689  -0.3155 
 H                    -0.23051  -3.17424   0.47852 
 H                     0.15082  -2.06838  -0.48969 
 H                    -1.79021   0.22882  -1.4222 
 
 Add virtual bond connecting atoms O19        and H14        Dist= 3.70D+00.

 GradGradGradGradGradGradGradGradGradGradGradGradGradGradGradGradGradGrad
 Berny optimization.
 Initialization pass.
                           ----------------------------
                           !    Initial Parameters    !
                           ! (Angstroms and Degrees)  !
 --------------------------                            --------------------------
 ! Name  Definition              Value          Derivative Info.                !
 --------------------------------------------------------------------------------
 ! R1    R(1,2)                  1.3922         estimate D2E/DX2                !
 ! R2    R(1,6)                  1.3883         estimate D2E/DX2                !
 ! R3    R(1,7)                  1.0796         estimate D2E/DX2                !
 ! R4    R(2,3)                  1.392          estimate D2E/DX2                !
 ! R5    R(2,8)                  1.0812         estimate D2E/DX2                !
 ! R6    R(3,4)                  1.3954         estimate D2E/DX2                !
 ! R7    R(3,12)                 1.5139         estimate D2E/DX2                !
 ! R8    R(4,5)                  1.3876         estimate D2E/DX2                !
 ! R9    R(4,9)                  1.0794         estimate D2E/DX2                !
 ! R10   R(5,6)                  1.3923         estimate D2E/DX2                !
 ! R11   R(5,10)                 1.0798         estimate D2E/DX2                !
 ! R12   R(6,11)                 1.0793         estimate D2E/DX2                !
 ! R13   R(12,13)                1.4165         estimate D2E/DX2                !
 ! R14   R(12,15)                1.5184         estimate D2E/DX2                !
 ! R15   R(12,22)                1.095          estimate D2E/DX2                !
 ! R16   R(13,14)                0.9676         estimate D2E/DX2                !
 ! R17   R(14,19)                1.9569         estimate D2E/DX2                !
 ! R18   R(15,16)                1.0883         estimate D2E/DX2                !
 ! R19   R(15,17)                1.0879         estimate D2E/DX2                !
 ! R20   R(15,18)                1.0875         estimate D2E/DX2                !
 ! R21   R(19,20)                0.959          estimate D2E/DX2                !
 ! R22   R(19,21)                0.9624         estimate D2E/DX2                !
 ! A1    A(2,1,6)              119.9753         estimate D2E/DX2                !
 ! A2    A(2,1,7)              119.8984         estimate D2E/DX2                !
 ! A3    A(6,1,7)              120.1252         estimate D2E/DX2                !
 ! A4    A(1,2,3)              120.767          estimate D2E/DX2                !
 ! A5    A(1,2,8)              119.9418         estimate D2E/DX2                !
 ! A6    A(3,2,8)              119.2903         estimate D2E/DX2                !
 ! A7    A(2,3,4)              118.8377         estimate D2E/DX2                !
 ! A8    A(2,3,12)             121.0092         estimate D2E/DX2                !
 ! A9    A(4,3,12)             120.1496         estimate D2E/DX2                !
 ! A10   A(3,4,5)              120.5558         estimate D2E/DX2                !
 ! A11   A(3,4,9)              118.7782         estimate D2E/DX2                !
 ! A12   A(5,4,9)              120.6551         estimate D2E/DX2                !
 ! A13   A(4,5,6)              120.228          estimate D2E/DX2                !
 ! A14   A(4,5,10)             119.8585         estimate D2E/DX2                !
 ! A15   A(6,5,10)             119.9133         estimate D2E/DX2                !
 ! A16   A(1,6,5)              119.6348         estimate D2E/DX2                !
 ! A17   A(1,6,11)             120.1805         estimate D2E/DX2                !
 ! A18   A(5,6,11)             120.1842         estimate D2E/DX2                !
 ! A19   A(3,12,13)            111.7056         estimate D2E/DX2                !
 ! A20   A(3,12,15)            111.5235         estimate D2E/DX2                !
 ! A21   A(3,12,22)            107.7778         estimate D2E/DX2                !
 ! A22   A(13,12,15)           106.9907         estimate D2E/DX2                !
 ! A23   A(13,12,22)           110.093          estimate D2E/DX2                !
 ! A24   A(15,12,22)           108.7247         estimate D2E/DX2                !
 ! A25   A(12,13,14)           107.1177         estimate D2E/DX2                !
 ! A26   A(13,14,19)           158.7134         estimate D2E/DX2                !
 ! A27   A(12,15,16)           109.767          estimate D2E/DX2                !
 ! A28   A(12,15,17)           110.6804         estimate D2E/DX2                !
 ! A29   A(12,15,18)           109.7114         estimate D2E/DX2                !
 ! A30   A(16,15,17)           108.7314         estimate D2E/DX2                !
 ! A31   A(16,15,18)           108.6813         estimate D2E/DX2                !
 ! A32   A(17,15,18)           109.2324         estimate D2E/DX2                !
 ! A33   A(14,19,20)           107.6529         estimate D2E/DX2                !
 ! A34   A(14,19,21)            94.3071         estimate D2E/DX2                !
 ! A35   A(20,19,21)           104.4207         estimate D2E/DX2                !
 ! D1    D(6,1,2,3)              0.2103         estimate D2E/DX2                !
 ! D2    D(6,1,2,8)           -179.4356         estimate D2E/DX2                !
 ! D3    D(7,1,2,3)            179.8374         estimate D2E/DX2                !
 ! D4    D(7,1,2,8)              0.1916         estimate D2E/DX2                !
 ! D5    D(2,1,6,5)              0.0441         estimate D2E/DX2                !
 ! D6    D(2,1,6,11)           179.7764         estimate D2E/DX2                !
 ! D7    D(7,1,6,5)           -179.5822         estimate D2E/DX2                !
 ! D8    D(7,1,6,11)             0.1501         estimate D2E/DX2                !
 ! D9    D(1,2,3,4)             -0.4439         estimate D2E/DX2                !
 ! D10   D(1,2,3,12)          -179.7686         estimate D2E/DX2                !
 ! D11   D(8,2,3,4)            179.2042         estimate D2E/DX2                !
 ! D12   D(8,2,3,12)            -0.1205         estimate D2E/DX2                !
 ! D13   D(2,3,4,5)              0.4301         estimate D2E/DX2                !
 ! D14   D(2,3,4,9)           -178.3764         estimate D2E/DX2                !
 ! D15   D(12,3,4,5)           179.7608         estimate D2E/DX2                !
 ! D16   D(12,3,4,9)             0.9543         estimate D2E/DX2                !
 ! D17   D(2,3,12,13)          135.7517         estimate D2E/DX2                !
 ! D18   D(2,3,12,15)         -104.5732         estimate D2E/DX2                !
 ! D19   D(2,3,12,22)           14.6915         estimate D2E/DX2                !
 ! D20   D(4,3,12,13)          -43.5643         estimate D2E/DX2                !
 ! D21   D(4,3,12,15)           76.1109         estimate D2E/DX2                !
 ! D22   D(4,3,12,22)         -164.6244         estimate D2E/DX2                !
 ! D23   D(3,4,5,6)             -0.1835         estimate D2E/DX2                !
 ! D24   D(3,4,5,10)           179.9591         estimate D2E/DX2                !
 ! D25   D(9,4,5,6)            178.6004         estimate D2E/DX2                !
 ! D26   D(9,4,5,10)            -1.257          estimate D2E/DX2                !
 ! D27   D(4,5,6,1)             -0.057          estimate D2E/DX2                !
 ! D28   D(4,5,6,11)          -179.7893         estimate D2E/DX2                !
 ! D29   D(10,5,6,1)           179.8003         estimate D2E/DX2                !
 ! D30   D(10,5,6,11)            0.068          estimate D2E/DX2                !
 ! D31   D(3,12,13,14)         -56.2755         estimate D2E/DX2                !
 ! D32   D(15,12,13,14)       -178.5877         estimate D2E/DX2                !
 ! D33   D(22,12,13,14)         63.4298         estimate D2E/DX2                !
 ! D34   D(3,12,15,16)         -60.6987         estimate D2E/DX2                !
 ! D35   D(3,12,15,17)          59.3276         estimate D2E/DX2                !
 ! D36   D(3,12,15,18)         179.9411         estimate D2E/DX2                !
 ! D37   D(13,12,15,16)         61.7274         estimate D2E/DX2                !
 ! D38   D(13,12,15,17)       -178.2464         estimate D2E/DX2                !
 ! D39   D(13,12,15,18)        -57.6329         estimate D2E/DX2                !
 ! D40   D(22,12,15,16)       -179.3996         estimate D2E/DX2                !
 ! D41   D(22,12,15,17)        -59.3734         estimate D2E/DX2                !
 ! D42   D(22,12,15,18)         61.2401         estimate D2E/DX2                !
 ! D43   D(12,13,14,19)         32.6686         estimate D2E/DX2                !
 ! D44   D(13,14,19,20)        101.342          estimate D2E/DX2                !
 ! D45   D(13,14,19,21)         -5.2799         estimate D2E/DX2                !
 ! D46   D(14,19,20,21)        -99.3932         estimate D2E/DX2                !
 --------------------------------------------------------------------------------
 Trust Radius=3.00D-01 FncErr=1.00D-07 GrdErr=1.00D-06
 Number of steps in this run=    113 maximum allowed number of steps=    132.
 GradGradGradGradGradGradGradGradGradGradGradGradGradGradGradGradGradGrad

                          Input orientation:                          
 ---------------------------------------------------------------------
 Center     Atomic      Atomic             Coordinates (Angstroms)
 Number     Number       Type             X           Y           Z
 ---------------------------------------------------------------------
      1          6           0        2.158723    0.389243   -1.045837
      2          6           0        0.780725    0.433305   -1.239392
      3          6           0       -0.092616    0.373624   -0.157114
      4          6           0        0.436360    0.259100    1.129096
      5          6           0        1.809195    0.214633    1.325856
      6          6           0        2.675709    0.280222    0.238018
      7          1           0        2.823176    0.433896   -1.895521
      8          1           0        0.378490    0.509010   -2.240128
      9          1           0       -0.242112    0.186187    1.965400
     10          1           0        2.206338    0.126541    2.326078
     11          1           0        3.743332    0.242155    0.391608
     12          6           0       -1.592038    0.415871   -0.361635
     13          8           0       -2.256835   -0.548416    0.435114
     14          1           0       -1.875970   -1.410446    0.215939
     15          6           0       -2.166997    1.771154    0.010039
     16          1           0       -1.969896    1.979204    1.059929
     17          1           0       -1.717310    2.557581   -0.592376
     18          1           0       -3.242871    1.769202   -0.148677
     19          8           0       -0.529119   -2.726890   -0.315497
     20          1           0       -0.230514   -3.174238    0.478515
     21          1           0        0.150816   -2.068376   -0.489693
     22          1           0       -1.790212    0.228819   -1.422201
 ---------------------------------------------------------------------
                    Distance matrix (angstroms):
                    1          2          3          4          5
     1  C    0.000000
     2  C    1.392222   0.000000
     3  C    2.420454   1.391981   0.000000
     4  C    2.777374   2.399723   1.395445   0.000000
     5  C    2.403661   2.772375   2.416891   1.387576   0.000000
     6  C    1.388324   2.407725   2.797941   2.410218   1.392315
     7  H    1.079562   2.145253   3.395222   3.856910   3.384303
     8  H    2.147069   1.081202   2.139911   3.378975   3.853546
     9  H    3.856525   3.373122   2.136012   1.079372   2.148880
    10  H    3.382468   3.852149   3.393005   2.140832   1.079781
    11  H    2.144497   3.387291   3.877225   3.388250   2.148130
    12  C    3.812748   2.529973   1.513896   2.522153   3.802172
    13  O    4.750744   3.604791   2.425847   2.896030   4.231816
    14  H    4.594530   3.546186   2.549985   2.994680   4.177707
    15  C    4.662232   3.469868   2.506808   3.211863   4.468135
    16  H    4.899767   3.904177   2.753772   2.958650   4.179229
    17  H    4.464409   3.342358   2.756583   3.589537   4.648146
    18  H    5.646804   4.377625   3.445550   4.177302   5.487650
    19  O    4.179495   3.543460   3.135093   3.454726   4.100526
    20  H    4.553076   4.121671   3.606988   3.557497   4.045102
    21  H    3.221937   2.686492   2.476536   2.849414   3.355379
    22  H    3.970072   2.585527   2.122085   3.386393   4.528548
                    6          7          8          9         10
     6  C    0.000000
     7  H    2.144143   0.000000
     8  H    3.386852   2.469997   0.000000
     9  H    3.392104   4.935996   4.263312   0.000000
    10  H    2.145675   4.277482   4.933310   2.475592   0.000000
    11  H    1.079286   2.472733   4.280118   4.285291   2.473437
    12  C    4.311803   4.674104   2.724040   2.700027   4.662100
    13  O    5.005545   5.674796   3.901283   2.634488   4.893999
    14  H    4.855577   5.471913   3.846968   2.877385   4.845643
    15  C    5.072145   5.506473   3.624329   3.168713   5.214868
    16  H    5.014352   5.839195   4.308917   2.649533   4.740931
    17  H    5.017423   5.179212   3.362158   3.787075   5.460984
    18  H    6.115242   6.452242   4.367666   3.997476   6.206176
    19  O    4.429450   4.870824   3.872855   3.710914   4.754231
    20  H    4.520759   5.289584   4.618249   3.674700   4.499653
    21  H    3.524282   3.921636   3.123904   3.356327   4.119636
    22  H    4.764811   4.642137   2.334691   3.724818   5.480189
                   11         12         13         14         15
    11  H    0.000000
    12  C    5.391078   0.000000
    13  O    6.052181   1.416550   0.000000
    14  H    5.859907   1.936399   0.967570   0.000000
    15  C    6.116815   1.518391   2.359908   3.201511   0.000000
    16  H    6.008741   2.146539   2.619464   3.494405   1.088303
    17  H    6.012323   2.157743   3.315726   4.052627   1.087929
    18  H    7.171528   2.145252   2.585427   3.480162   1.087520
    19  O    5.250625   3.317962   2.879960   1.956900   4.798022
    20  H    5.241254   3.930456   3.317047   2.426403   5.331636
    21  H    4.361355   3.037338   2.993715   2.244694   4.512647
    22  H    5.823246   1.095017   2.066749   2.319062   2.138241
                   16         17         18         19         20
    16  H    0.000000
    17  H    1.768737   0.000000
    18  H    1.767850   1.773625   0.000000
    19  O    5.110279   5.423476   5.254248   0.000000
    20  H    5.470051   6.017568   5.822823   0.959031   0.000000
    21  H    4.825106   4.989982   5.134239   0.962443   1.518476
    22  H    3.042549   2.473268   2.470802   3.398730   4.198354
                   21         22
    21  H    0.000000
    22  H    3.148693   0.000000
 Stoichiometry    C8H12O2
 Framework group  C1[X(C8H12O2)]
 Deg. of freedom    60
 Full point group                 C1      NOp   1
 Largest Abelian subgroup         C1      NOp   1
 Largest concise Abelian subgroup C1      NOp   1
                         Standard orientation:                         
 ---------------------------------------------------------------------
 Center     Atomic      Atomic             Coordinates (Angstroms)
 Number     Number       Type             X           Y           Z
 ---------------------------------------------------------------------
      1          6           0       -2.158723   -0.389243   -1.045837
      2          6           0       -0.780725   -0.433305   -1.239392
      3          6           0        0.092616   -0.373624   -0.157114
      4          6           0       -0.436360   -0.259100    1.129096
      5          6           0       -1.809195   -0.214633    1.325856
      6          6           0       -2.675709   -0.280222    0.238018
      7          1           0       -2.823176   -0.433896   -1.895521
      8          1           0       -0.378490   -0.509010   -2.240128
      9          1           0        0.242112   -0.186187    1.965400
     10          1           0       -2.206338   -0.126541    2.326078
     11          1           0       -3.743332   -0.242155    0.391608
     12          6           0        1.592038   -0.415871   -0.361635
     13          8           0        2.256835    0.548416    0.435114
     14          1           0        1.875970    1.410446    0.215939
     15          6           0        2.166997   -1.771154    0.010039
     16          1           0        1.969896   -1.979204    1.059929
     17          1           0        1.717310   -2.557581   -0.592376
     18          1           0        3.242871   -1.769202   -0.148677
     19          8           0        0.529119    2.726890   -0.315497
     20          1           0        0.230514    3.174238    0.478515
     21          1           0       -0.150816    2.068376   -0.489693
     22          1           0        1.790212   -0.228819   -1.422201
 ---------------------------------------------------------------------
 Rotational constants (GHZ):      1.6886498      0.9855609      0.8185234
 Standard basis: Aug-CC-pVTZ (5D, 7F)
 There are   850 symmetry adapted cartesian basis functions of A   symmetry.
 There are   736 symmetry adapted basis functions of A   symmetry.
   736 basis functions,  1044 primitive gaussians,   850 cartesian basis functions
    38 alpha electrons       38 beta electrons
       nuclear repulsion energy       531.0668838533 Hartrees.
 NAtoms=   22 NActive=   22 NUniq=   22 SFac= 1.00D+00 NAtFMM=   60 NAOKFM=F Big=F
 Integral buffers will be    131072 words long.
 Raffenetti 2 integral format.
 Two-electron integral symmetry is turned on.
 Nuclear repulsion after empirical dispersion term =      531.0482111969 Hartrees.
 One-electron integrals computed using PRISM.
 NBasis=   736 RedAO= T EigKep=  1.58D-06  NBF=   736
 NBsUse=   733 1.00D-06 EigRej=  8.52D-07 NBFU=   733
 ExpMin= 2.53D-02 ExpMax= 1.53D+04 ExpMxC= 5.22D+02 IAcc=3 IRadAn=         5 AccDes= 0.00D+00
 Harris functional with IExCor=  402 and IRadAn=       5 diagonalized for initial guess.
 HarFok:  IExCor=  402 AccDes= 0.00D+00 IRadAn=         5 IDoV= 1 UseB2=F ITyADJ=14
 ICtDFT=  3500011 ScaDFX=  1.000000  1.000000  1.000000  1.000000
 FoFCou: FMM=F IPFlag=           0 FMFlag=      100000 FMFlg1=           0
         NFxFlg=           0 DoJE=T BraDBF=F KetDBF=T FulRan=T
         wScrn=  0.000000 ICntrl=     500 IOpCl=  0 I1Cent=   200000004 NGrid=           0
         NMat0=    1 NMatS0=      1 NMatT0=    0 NMatD0=    1 NMtDS0=    0 NMtDT0=    0
 Petite list used in FoFCou.
 Requested convergence on RMS density matrix=1.00D-08 within 128 cycles.
 Requested convergence on MAX density matrix=1.00D-06.
 Requested convergence on             energy=1.00D-06.
 No special actions if energy rises.
 SCF Done:  E(RB3LYP) =  -462.734436783     A.U. after   12 cycles
            NFock= 12  Conv=0.58D-08     -V/T= 2.0060

 **********************************************************************

            Population analysis using the SCF density.

 **********************************************************************

 Orbital symmetries:
       Occupied  (A) (A) (A) (A) (A) (A) (A) (A) (A) (A) (A) (A)
                 (A) (A) (A) (A) (A) (A) (A) (A) (A) (A) (A) (A)
                 (A) (A) (A) (A) (A) (A) (A) (A) (A) (A) (A) (A)
                 (A) (A)
       Virtual   (A) (A) (A) (A) (A) (A) (A) (A) (A) (A) (A) (A)
                 (A) (A) (A) (A) (A) (A) (A) (A) (A) (A) (A) (A)
                 (A) (A) (A) (A) (A) (A) (A) (A) (A) (A) (A) (A)
                 (A) (A) (A) (A) (A) (A) (A) (A) (A) (A) (A) (A)
                 (A) (A) (A) (A) (A) (A) (A) (A) (A) (A) (A) (A)
                 (A) (A) (A) (A) (A) (A) (A) (A) (A) (A) (A) (A)
                 (A) (A) (A) (A) (A) (A) (A) (A) (A) (A) (A) (A)
                 (A) (A) (A) (A) (A) (A) (A) (A) (A) (A) (A) (A)
                 (A) (A) (A) (A) (A) (A) (A) (A) (A) (A) (A) (A)
                 (A) (A) (A) (A) (A) (A) (A) (A) (A) (A) (A) (A)
                 (A) (A) (A) (A) (A) (A) (A) (A) (A) (A) (A) (A)
                 (A) (A) (A) (A) (A) (A) (A) (A) (A) (A) (A) (A)
                 (A) (A) (A) (A) (A) (A) (A) (A) (A) (A) (A) (A)
                 (A) (A) (A) (A) (A) (A) (A) (A) (A) (A) (A) (A)
                 (A) (A) (A) (A) (A) (A) (A) (A) (A) (A) (A) (A)
                 (A) (A) (A) (A) (A) (A) (A) (A) (A) (A) (A) (A)
                 (A) (A) (A) (A) (A) (A) (A) (A) (A) (A) (A) (A)
                 (A) (A) (A) (A) (A) (A) (A) (A) (A) (A) (A) (A)
                 (A) (A) (A) (A) (A) (A) (A) (A) (A) (A) (A) (A)
                 (A) (A) (A) (A) (A) (A) (A) (A) (A) (A) (A) (A)
                 (A) (A) (A) (A) (A) (A) (A) (A) (A) (A) (A) (A)
                 (A) (A) (A) (A) (A) (A) (A) (A) (A) (A) (A) (A)
                 (A) (A) (A) (A) (A) (A) (A) (A) (A) (A) (A) (A)
                 (A) (A) (A) (A) (A) (A) (A) (A) (A) (A) (A) (A)
                 (A) (A) (A) (A) (A) (A) (A) (A) (A) (A) (A) (A)
                 (A) (A) (A) (A) (A) (A) (A) (A) (A) (A) (A) (A)
                 (A) (A) (A) (A) (A) (A) (A) (A) (A) (A) (A) (A)
                 (A) (A) (A) (A) (A) (A) (A) (A) (A) (A) (A) (A)
                 (A) (A) (A) (A) (A) (A) (A) (A) (A) (A) (A) (A)
                 (A) (A) (A) (A) (A) (A) (A) (A) (A) (A) (A) (A)
                 (A) (A) (A) (A) (A) (A) (A) (A) (A) (A) (A) (A)
                 (A) (A) (A) (A) (A) (A) (A) (A) (A) (A) (A) (A)
                 (A) (A) (A) (A) (A) (A) (A) (A) (A) (A) (A) (A)
                 (A) (A) (A) (A) (A) (A) (A) (A) (A) (A) (A) (A)
                 (A) (A) (A) (A) (A) (A) (A) (A) (A) (A) (A) (A)
                 (A) (A) (A) (A) (A) (A) (A) (A) (A) (A) (A) (A)
                 (A) (A) (A) (A) (A) (A) (A) (A) (A) (A) (A) (A)
                 (A) (A) (A) (A) (A) (A) (A) (A) (A) (A) (A) (A)
                 (A) (A) (A) (A) (A) (A) (A) (A) (A) (A) (A) (A)
                 (A) (A) (A) (A) (A) (A) (A) (A) (A) (A) (A) (A)
                 (A) (A) (A) (A) (A) (A) (A) (A) (A) (A) (A) (A)
                 (A) (A) (A) (A) (A) (A) (A) (A) (A) (A) (A) (A)
                 (A) (A) (A) (A) (A) (A) (A) (A) (A) (A) (A) (A)
                 (A) (A) (A) (A) (A) (A) (A) (A) (A) (A) (A) (A)
                 (A) (A) (A) (A) (A) (A) (A) (A) (A) (A) (A) (A)
                 (A) (A) (A) (A) (A) (A) (A) (A) (A) (A) (A) (A)
                 (A) (A) (A) (A) (A) (A) (A) (A) (A) (A) (A) (A)
                 (A) (A) (A) (A) (A) (A) (A) (A) (A) (A) (A) (A)
                 (A) (A) (A) (A) (A) (A) (A) (A) (A) (A) (A) (A)
                 (A) (A) (A) (A) (A) (A) (A) (A) (A) (A) (A) (A)
                 (A) (A) (A) (A) (A) (A) (A) (A) (A) (A) (A) (A)
                 (A) (A) (A) (A) (A) (A) (A) (A) (A) (A) (A) (A)
                 (A) (A) (A) (A) (A) (A) (A) (A) (A) (A) (A) (A)
                 (A) (A) (A) (A) (A) (A) (A) (A) (A) (A) (A) (A)
                 (A) (A) (A) (A) (A) (A) (A) (A) (A) (A) (A) (A)
                 (A) (A) (A) (A) (A) (A) (A) (A) (A) (A) (A) (A)
                 (A) (A) (A) (A) (A) (A) (A) (A) (A) (A) (A) (A)
                 (A) (A) (A) (A) (A) (A) (A) (A) (A) (A) (A)
 The electronic state is 1-A.
 Alpha  occ. eigenvalues --  -19.15173 -19.11429 -10.22642 -10.18966 -10.18871
 Alpha  occ. eigenvalues --  -10.18786 -10.18690 -10.18649 -10.18323 -10.16001
 Alpha  occ. eigenvalues --   -1.03746  -1.01612  -0.87150  -0.78508  -0.75962
 Alpha  occ. eigenvalues --   -0.73237  -0.63677  -0.61968  -0.58403  -0.55322
 Alpha  occ. eigenvalues --   -0.53406  -0.51030  -0.47915  -0.45603  -0.44306
 Alpha  occ. eigenvalues --   -0.43246  -0.42152  -0.41729  -0.38927  -0.38305
 Alpha  occ. eigenvalues --   -0.37579  -0.36508  -0.35363  -0.34360  -0.31852
 Alpha  occ. eigenvalues --   -0.28062  -0.27028  -0.25664
 Alpha virt. eigenvalues --   -0.02740  -0.02630  -0.02175  -0.00486  -0.00031
 Alpha virt. eigenvalues --    0.00381   0.01905   0.02016   0.02478   0.03231
 Alpha virt. eigenvalues --    0.03741   0.04544   0.04750   0.05219   0.05504
 Alpha virt. eigenvalues --    0.06463   0.06644   0.06802   0.06965   0.07555
 Alpha virt. eigenvalues --    0.08030   0.08126   0.08473   0.08804   0.09087
 Alpha virt. eigenvalues --    0.09538   0.09786   0.10028   0.10420   0.10886
 Alpha virt. eigenvalues --    0.11090   0.11739   0.11912   0.12312   0.12516
 Alpha virt. eigenvalues --    0.13082   0.13376   0.13665   0.14595   0.15078
 Alpha virt. eigenvalues --    0.15528   0.15879   0.16606   0.17122   0.17683
 Alpha virt. eigenvalues --    0.17978   0.18555   0.18943   0.19228   0.19636
 Alpha virt. eigenvalues --    0.20013   0.20126   0.20521   0.20759   0.21051
 Alpha virt. eigenvalues --    0.21504   0.21865   0.22050   0.22637   0.23204
 Alpha virt. eigenvalues --    0.23322   0.23448   0.23897   0.24322   0.24639
 Alpha virt. eigenvalues --    0.25192   0.25435   0.25807   0.26219   0.26893
 Alpha virt. eigenvalues --    0.27117   0.27803   0.28190   0.28784   0.28909
 Alpha virt. eigenvalues --    0.29680   0.30197   0.30568   0.31388   0.31843
 Alpha virt. eigenvalues --    0.32049   0.32381   0.32906   0.33288   0.33541
 Alpha virt. eigenvalues --    0.34338   0.34756   0.35084   0.35467   0.35836
 Alpha virt. eigenvalues --    0.36270   0.36612   0.36887   0.37079   0.37677
 Alpha virt. eigenvalues --    0.37984   0.38340   0.38524   0.39346   0.39800
 Alpha virt. eigenvalues --    0.40041   0.40556   0.40862   0.41811   0.42168
 Alpha virt. eigenvalues --    0.42210   0.42753   0.43265   0.43379   0.43884
 Alpha virt. eigenvalues --    0.44258   0.44483   0.44647   0.44928   0.45893
 Alpha virt. eigenvalues --    0.46686   0.46769   0.47382   0.47754   0.47866
 Alpha virt. eigenvalues --    0.48238   0.48777   0.49426   0.50073   0.50148
 Alpha virt. eigenvalues --    0.50574   0.51600   0.51962   0.52419   0.53202
 Alpha virt. eigenvalues --    0.54511   0.54965   0.55264   0.55786   0.55993
 Alpha virt. eigenvalues --    0.56592   0.56993   0.58046   0.58318   0.58686
 Alpha virt. eigenvalues --    0.59504   0.60053   0.60713   0.61055   0.61837
 Alpha virt. eigenvalues --    0.62209   0.62837   0.64067   0.64334   0.64752
 Alpha virt. eigenvalues --    0.65383   0.65887   0.66737   0.67612   0.67970
 Alpha virt. eigenvalues --    0.68713   0.69088   0.69835   0.70041   0.70450
 Alpha virt. eigenvalues --    0.70955   0.71219   0.72234   0.72883   0.73126
 Alpha virt. eigenvalues --    0.73553   0.73820   0.74293   0.75003   0.75720
 Alpha virt. eigenvalues --    0.76504   0.77189   0.77690   0.77897   0.78513
 Alpha virt. eigenvalues --    0.79210   0.79386   0.79792   0.80296   0.81073
 Alpha virt. eigenvalues --    0.81317   0.81982   0.82459   0.83360   0.83805
 Alpha virt. eigenvalues --    0.84624   0.84824   0.85878   0.86299   0.86843
 Alpha virt. eigenvalues --    0.86915   0.87481   0.88383   0.88776   0.89442
 Alpha virt. eigenvalues --    0.90068   0.90652   0.91195   0.91507   0.92155
 Alpha virt. eigenvalues --    0.92552   0.93077   0.93829   0.94255   0.94537
 Alpha virt. eigenvalues --    0.94629   0.94965   0.95599   0.96496   0.96883
 Alpha virt. eigenvalues --    0.97829   0.98043   0.98930   0.99524   1.00290
 Alpha virt. eigenvalues --    1.00580   1.00977   1.01464   1.01697   1.02036
 Alpha virt. eigenvalues --    1.03060   1.03337   1.04037   1.04268   1.04827
 Alpha virt. eigenvalues --    1.05776   1.06222   1.06918   1.07325   1.08143
 Alpha virt. eigenvalues --    1.08185   1.08699   1.09093   1.09438   1.10296
 Alpha virt. eigenvalues --    1.10897   1.11617   1.12449   1.13270   1.13531
 Alpha virt. eigenvalues --    1.14551   1.14852   1.15496   1.16438   1.16547
 Alpha virt. eigenvalues --    1.17647   1.18097   1.18695   1.19157   1.20041
 Alpha virt. eigenvalues --    1.20386   1.20984   1.21282   1.21543   1.24343
 Alpha virt. eigenvalues --    1.25036   1.25550   1.26106   1.26879   1.27248
 Alpha virt. eigenvalues --    1.27951   1.28738   1.29469   1.30657   1.31281
 Alpha virt. eigenvalues --    1.31862   1.32280   1.32318   1.33342   1.33811
 Alpha virt. eigenvalues --    1.34083   1.34768   1.36141   1.37221   1.37302
 Alpha virt. eigenvalues --    1.38238   1.38358   1.38527   1.39769   1.41578
 Alpha virt. eigenvalues --    1.42060   1.43208   1.44011   1.44780   1.45575
 Alpha virt. eigenvalues --    1.46549   1.47353   1.47666   1.48239   1.49045
 Alpha virt. eigenvalues --    1.49620   1.50658   1.51606   1.51636   1.52923
 Alpha virt. eigenvalues --    1.53303   1.53849   1.54349   1.54950   1.55514
 Alpha virt. eigenvalues --    1.56496   1.57234   1.57731   1.58260   1.58738
 Alpha virt. eigenvalues --    1.60000   1.60214   1.60879   1.61343   1.61990
 Alpha virt. eigenvalues --    1.63168   1.63715   1.65514   1.65917   1.66958
 Alpha virt. eigenvalues --    1.67177   1.68283   1.68877   1.69290   1.70021
 Alpha virt. eigenvalues --    1.70455   1.71883   1.72546   1.73066   1.74724
 Alpha virt. eigenvalues --    1.75894   1.76348   1.76993   1.78561   1.78785
 Alpha virt. eigenvalues --    1.79621   1.80404   1.80845   1.81357   1.82142
 Alpha virt. eigenvalues --    1.82891   1.83787   1.85166   1.85376   1.86411
 Alpha virt. eigenvalues --    1.87727   1.88270   1.89472   1.90519   1.91064
 Alpha virt. eigenvalues --    1.91901   1.93791   1.94401   1.95261   1.95921
 Alpha virt. eigenvalues --    1.96727   1.97783   1.97996   1.98352   1.99418
 Alpha virt. eigenvalues --    2.01131   2.01627   2.03303   2.03565   2.04910
 Alpha virt. eigenvalues --    2.05140   2.06748   2.07490   2.08305   2.08920
 Alpha virt. eigenvalues --    2.11015   2.12986   2.13679   2.14582   2.15957
 Alpha virt. eigenvalues --    2.16741   2.17656   2.18141   2.19618   2.22528
 Alpha virt. eigenvalues --    2.22834   2.22929   2.23969   2.24967   2.25680
 Alpha virt. eigenvalues --    2.26937   2.28183   2.29058   2.29946   2.30723
 Alpha virt. eigenvalues --    2.33810   2.34252   2.35401   2.36409   2.37918
 Alpha virt. eigenvalues --    2.39431   2.40370   2.41019   2.43954   2.45836
 Alpha virt. eigenvalues --    2.46594   2.47666   2.48525   2.50696   2.51225
 Alpha virt. eigenvalues --    2.51608   2.52748   2.54860   2.55568   2.57326
 Alpha virt. eigenvalues --    2.59799   2.61554   2.63154   2.63997   2.64631
 Alpha virt. eigenvalues --    2.66832   2.70819   2.72387   2.73118   2.75459
 Alpha virt. eigenvalues --    2.77801   2.78964   2.80844   2.83371   2.83994
 Alpha virt. eigenvalues --    2.86128   2.89230   2.90682   2.93700   2.93744
 Alpha virt. eigenvalues --    2.95621   2.96337   2.98396   2.99104   3.00975
 Alpha virt. eigenvalues --    3.01868   3.04989   3.06671   3.08470   3.09606
 Alpha virt. eigenvalues --    3.10437   3.11789   3.14160   3.14178   3.16531
 Alpha virt. eigenvalues --    3.17910   3.19578   3.20121   3.20993   3.22141
 Alpha virt. eigenvalues --    3.22941   3.24817   3.25692   3.27307   3.27905
 Alpha virt. eigenvalues --    3.28746   3.28977   3.30073   3.30549   3.32340
 Alpha virt. eigenvalues --    3.33728   3.34193   3.35189   3.36327   3.37088
 Alpha virt. eigenvalues --    3.38465   3.39066   3.41591   3.42429   3.43437
 Alpha virt. eigenvalues --    3.44602   3.45695   3.46771   3.47561   3.48690
 Alpha virt. eigenvalues --    3.51050   3.52159   3.53984   3.54356   3.55170
 Alpha virt. eigenvalues --    3.56914   3.57638   3.57998   3.59567   3.60266
 Alpha virt. eigenvalues --    3.60705   3.62938   3.63465   3.64327   3.66199
 Alpha virt. eigenvalues --    3.66812   3.67003   3.67393   3.68058   3.69384
 Alpha virt. eigenvalues --    3.70248   3.71637   3.72367   3.73386   3.74307
 Alpha virt. eigenvalues --    3.75906   3.77287   3.77629   3.78539   3.80610
 Alpha virt. eigenvalues --    3.81035   3.81314   3.83486   3.84658   3.85194
 Alpha virt. eigenvalues --    3.86432   3.87573   3.88245   3.90427   3.91634
 Alpha virt. eigenvalues --    3.92221   3.92605   3.93725   3.94917   3.96631
 Alpha virt. eigenvalues --    3.97516   3.97911   3.98863   3.99834   4.00580
 Alpha virt. eigenvalues --    4.01663   4.02539   4.03437   4.05020   4.05603
 Alpha virt. eigenvalues --    4.06345   4.07080   4.08476   4.09568   4.11065
 Alpha virt. eigenvalues --    4.12230   4.12556   4.13502   4.14363   4.14649
 Alpha virt. eigenvalues --    4.15688   4.16142   4.17392   4.18390   4.19831
 Alpha virt. eigenvalues --    4.21502   4.22954   4.24064   4.25251   4.27411
 Alpha virt. eigenvalues --    4.28272   4.30237   4.30956   4.31759   4.32637
 Alpha virt. eigenvalues --    4.33879   4.35165   4.37028   4.38154   4.38394
 Alpha virt. eigenvalues --    4.39940   4.40762   4.43114   4.43805   4.45906
 Alpha virt. eigenvalues --    4.47387   4.48367   4.50079   4.50603   4.52284
 Alpha virt. eigenvalues --    4.52860   4.54350   4.55864   4.56436   4.57192
 Alpha virt. eigenvalues --    4.59661   4.60046   4.62237   4.62827   4.64841
 Alpha virt. eigenvalues --    4.67249   4.69824   4.70738   4.72212   4.72582
 Alpha virt. eigenvalues --    4.74837   4.76564   4.77351   4.77752   4.78835
 Alpha virt. eigenvalues --    4.81312   4.81801   4.82995   4.84594   4.85911
 Alpha virt. eigenvalues --    4.86430   4.87349   4.88106   4.89674   4.91219
 Alpha virt. eigenvalues --    4.92528   4.93917   4.94471   4.94794   4.95554
 Alpha virt. eigenvalues --    4.97041   5.00616   5.02030   5.02478   5.03907
 Alpha virt. eigenvalues --    5.04742   5.07356   5.08336   5.08900   5.09844
 Alpha virt. eigenvalues --    5.11839   5.12235   5.13426   5.15783   5.17198
 Alpha virt. eigenvalues --    5.21360   5.23224   5.24090   5.25533   5.26119
 Alpha virt. eigenvalues --    5.27715   5.32242   5.38006   5.40420   5.41065
 Alpha virt. eigenvalues --    5.43776   5.45892   5.46725   5.48159   5.49157
 Alpha virt. eigenvalues --    5.51041   5.52320   5.55579   5.60713   5.65034
 Alpha virt. eigenvalues --    5.73213   5.78081   5.79414   5.83606   5.86520
 Alpha virt. eigenvalues --    5.87193   5.88120   5.93079   5.93692   5.96945
 Alpha virt. eigenvalues --    5.99156   6.01979   6.04460   6.06545   6.14756
 Alpha virt. eigenvalues --    6.19775   6.23279   6.34023   6.35974   6.39619
 Alpha virt. eigenvalues --    6.42123   6.46126   6.48073   6.51342   6.54081
 Alpha virt. eigenvalues --    6.58771   6.62130   6.63611   6.72823   6.74434
 Alpha virt. eigenvalues --    6.80790   6.85966   6.89689   6.93536   6.94518
 Alpha virt. eigenvalues --    6.95220   6.97494   7.00275   7.03366   7.14117
 Alpha virt. eigenvalues --    7.19300   7.22676   7.38031   7.41170   7.50392
 Alpha virt. eigenvalues --    7.55129   7.63393   7.87937   8.23681   8.43503
 Alpha virt. eigenvalues --   15.49271  15.67057  16.08374  16.42747  17.61398
 Alpha virt. eigenvalues --   18.05536  18.59610  18.95116  19.65895  20.74286
          Condensed to atoms (all electrons):
               1          2          3          4          5          6
     1  C    6.869739  -0.103426  -0.006257  -0.224256   0.091377   0.022072
     2  C   -0.103426   8.160198  -1.053631   0.078954  -0.209737   0.090728
     3  C   -0.006257  -1.053631   6.897360  -0.672496  -0.094451  -0.211987
     4  C   -0.224256   0.078954  -0.672496   7.613135  -0.025739   0.073193
     5  C    0.091377  -0.209737  -0.094451  -0.025739   7.054139  -0.090610
     6  C    0.022072   0.090728  -0.211987   0.073193  -0.090610   6.272396
     7  H    0.341712  -0.111181   0.038604   0.017413   0.018405  -0.166599
     8  H   -0.349036   0.268026  -0.054910   0.028545   0.014143   0.026111
     9  H    0.014678   0.020662   0.020800   0.100976  -0.324849   0.037987
    10  H    0.001042   0.034848   0.028534  -0.114650   0.305081  -0.141710
    11  H   -0.182681  -0.012438   0.002730   0.042469  -0.167406   0.280329
    12  C    0.073717  -0.219681   0.039485  -0.265206  -0.007478   0.008782
    13  O   -0.007940  -0.032657   0.120327   0.101563  -0.004386  -0.005502
    14  H    0.000751   0.007586  -0.087023   0.000724   0.003287  -0.001435
    15  C   -0.016915  -0.035710   0.034053   0.023108  -0.001977   0.001312
    16  H   -0.005203   0.002890  -0.024032   0.001257   0.007437   0.001673
    17  H    0.000850   0.009245  -0.004834   0.001757  -0.007361  -0.000613
    18  H    0.000799  -0.009336  -0.000431  -0.000741  -0.000199  -0.000233
    19  O   -0.004343   0.003289  -0.054982   0.011803  -0.005019  -0.001045
    20  H   -0.003837   0.000464   0.016053  -0.000415  -0.003081   0.002034
    21  H   -0.021109   0.034069   0.028840   0.007956  -0.016287   0.005990
    22  H    0.013890  -0.017697  -0.138891   0.006694   0.008751  -0.001452
               7          8          9         10         11         12
     1  C    0.341712  -0.349036   0.014678   0.001042  -0.182681   0.073717
     2  C   -0.111181   0.268026   0.020662   0.034848  -0.012438  -0.219681
     3  C    0.038604  -0.054910   0.020800   0.028534   0.002730   0.039485
     4  C    0.017413   0.028545   0.100976  -0.114650   0.042469  -0.265206
     5  C    0.018405   0.014143  -0.324849   0.305081  -0.167406  -0.007478
     6  C   -0.166599   0.026111   0.037987  -0.141710   0.280329   0.008782
     7  H    0.502737   0.031441   0.000743  -0.003107  -0.001039   0.001755
     8  H    0.031441   0.762631  -0.001867   0.001289  -0.005482   0.021648
     9  H    0.000743  -0.001867   0.801650   0.030327  -0.005757  -0.012379
    10  H   -0.003107   0.001289   0.030327   0.507239   0.000679  -0.000895
    11  H   -0.001039  -0.005482  -0.005757   0.000679   0.590994  -0.000431
    12  C    0.001755   0.021648  -0.012379  -0.000895  -0.000431   5.532010
    13  O   -0.000241   0.005422  -0.020076  -0.001272  -0.000006  -0.370501
    14  H    0.000272  -0.000958  -0.010906   0.000127  -0.000224   0.133749
    15  C    0.001307   0.010488   0.011103  -0.001277  -0.000977  -0.050620
    16  H   -0.000054   0.001944  -0.003105   0.000525   0.000018  -0.023524
    17  H   -0.000043  -0.002558  -0.002028  -0.000231  -0.000016  -0.029869
    18  H    0.000091   0.000239   0.000817  -0.000120  -0.000083  -0.031688
    19  O    0.000265  -0.002459  -0.010448   0.000341   0.000016   0.024706
    20  H   -0.000074   0.000838  -0.000748  -0.000234   0.000059   0.000774
    21  H   -0.001325   0.000633  -0.000982   0.000823   0.000296  -0.013156
    22  H    0.001024  -0.009212   0.008224   0.000335   0.000253   0.447538
              13         14         15         16         17         18
     1  C   -0.007940   0.000751  -0.016915  -0.005203   0.000850   0.000799
     2  C   -0.032657   0.007586  -0.035710   0.002890   0.009245  -0.009336
     3  C    0.120327  -0.087023   0.034053  -0.024032  -0.004834  -0.000431
     4  C    0.101563   0.000724   0.023108   0.001257   0.001757  -0.000741
     5  C   -0.004386   0.003287  -0.001977   0.007437  -0.007361  -0.000199
     6  C   -0.005502  -0.001435   0.001312   0.001673  -0.000613  -0.000233
     7  H   -0.000241   0.000272   0.001307  -0.000054  -0.000043   0.000091
     8  H    0.005422  -0.000958   0.010488   0.001944  -0.002558   0.000239
     9  H   -0.020076  -0.010906   0.011103  -0.003105  -0.002028   0.000817
    10  H   -0.001272   0.000127  -0.001277   0.000525  -0.000231  -0.000120
    11  H   -0.000006  -0.000224  -0.000977   0.000018  -0.000016  -0.000083
    12  C   -0.370501   0.133749  -0.050620  -0.023524  -0.029869  -0.031688
    13  O    8.994075   0.077111   0.038601   0.003447   0.006447   0.012304
    14  H    0.077111   0.664283  -0.018793  -0.001749  -0.000948  -0.003892
    15  C    0.038601  -0.018793   5.726293   0.392502   0.443405   0.467677
    16  H    0.003447  -0.001749   0.392502   0.446850  -0.013690  -0.019970
    17  H    0.006447  -0.000948   0.443405  -0.013690   0.439916   0.004599
    18  H    0.012304  -0.003892   0.467677  -0.019970   0.004599   0.435497
    19  O   -0.026607  -0.029895  -0.016920  -0.001130  -0.000675   0.000235
    20  H   -0.001942   0.005494  -0.001081  -0.000175  -0.000016   0.000016
    21  H    0.004232   0.005126   0.001215  -0.000651   0.000264   0.000181
    22  H   -0.072112   0.029969  -0.128097   0.002427  -0.010951  -0.020068
              19         20         21         22
     1  C   -0.004343  -0.003837  -0.021109   0.013890
     2  C    0.003289   0.000464   0.034069  -0.017697
     3  C   -0.054982   0.016053   0.028840  -0.138891
     4  C    0.011803  -0.000415   0.007956   0.006694
     5  C   -0.005019  -0.003081  -0.016287   0.008751
     6  C   -0.001045   0.002034   0.005990  -0.001452
     7  H    0.000265  -0.000074  -0.001325   0.001024
     8  H   -0.002459   0.000838   0.000633  -0.009212
     9  H   -0.010448  -0.000748  -0.000982   0.008224
    10  H    0.000341  -0.000234   0.000823   0.000335
    11  H    0.000016   0.000059   0.000296   0.000253
    12  C    0.024706   0.000774  -0.013156   0.447538
    13  O   -0.026607  -0.001942   0.004232  -0.072112
    14  H   -0.029895   0.005494   0.005126   0.029969
    15  C   -0.016920  -0.001081   0.001215  -0.128097
    16  H   -0.001130  -0.000175  -0.000651   0.002427
    17  H   -0.000675  -0.000016   0.000264  -0.010951
    18  H    0.000235   0.000016   0.000181  -0.020068
    19  O    8.255211   0.216214   0.113899  -0.003471
    20  H    0.216214   0.586210   0.044182   0.000098
    21  H    0.113899   0.044182   0.518198  -0.006209
    22  H   -0.003471   0.000098  -0.006209   0.638248
 Mulliken charges:
               1
     1  C   -0.505622
     2  C   -0.905466
     3  C    1.177138
     4  C   -0.806045
     5  C   -0.544038
     6  C   -0.201420
     7  H    0.327894
     8  H    0.253084
     9  H    0.345178
    10  H    0.352305
    11  H    0.458695
    12  C    0.741262
    13  O   -0.820287
    14  H    0.227346
    15  C   -0.878696
    16  H    0.232314
    17  H    0.167351
    18  H    0.164307
    19  O   -0.468986
    20  H    0.139166
    21  H    0.293813
    22  H    0.250708
 Sum of Mulliken charges =   0.00000
 Mulliken charges with hydrogens summed into heavy atoms:
               1
     1  C   -0.177727
     2  C   -0.652383
     3  C    1.177138
     4  C   -0.460867
     5  C   -0.191733
     6  C    0.257275
    12  C    0.991970
    13  O   -0.592941
    15  C   -0.314726
    19  O   -0.036006
 Electronic spatial extent (au):  <R**2>=           1597.4306
 Charge=              0.0000 electrons
 Dipole moment (field-independent basis, Debye):
    X=             -2.6013    Y=              0.0170    Z=              0.0584  Tot=              2.6020
 Quadrupole moment (field-independent basis, Debye-Ang):
   XX=            -64.3595   YY=            -62.0653   ZZ=            -58.0254
   XY=             -3.7573   XZ=             -1.8057   YZ=              4.4092
 Traceless Quadrupole moment (field-independent basis, Debye-Ang):
   XX=             -2.8761   YY=             -0.5819   ZZ=              3.4580
   XY=             -3.7573   XZ=             -1.8057   YZ=              4.4092
 Octapole moment (field-independent basis, Debye-Ang**2):
  XXX=            -17.8192  YYY=             25.1036  ZZZ=              0.9603  XYY=              6.0541
  XXY=             -1.4343  XXZ=             -5.8948  XZZ=             -1.7934  YZZ=              3.8365
  YYZ=             14.9622  XYZ=              0.6232
 Hexadecapole moment (field-independent basis, Debye-Ang**3):
 XXXX=          -1183.7710 YYYY=           -564.0201 ZZZZ=           -331.8403 XXXY=             -1.2934
 XXXZ=            -14.2312 YYYX=             -3.7181 YYYZ=             54.0655 ZZZX=              0.6923
 ZZZY=              3.0828 XXYY=           -309.6031 XXZZ=           -249.2078 YYZZ=           -159.8861
 XXYZ=              1.0126 YYXZ=              9.2186 ZZXY=              3.1621
 N-N= 5.310482111969D+02 E-N=-2.140838492829D+03  KE= 4.599845078841D+02
 Calling FoFJK, ICntrl=      2127 FMM=F ISym2X=0 I1Cent= 0 IOpClX= 0 NMat=1 NMatS=1 NMatT=0.
 ***** Axes restored to original set *****
 -------------------------------------------------------------------
 Center     Atomic                   Forces (Hartrees/Bohr)
 Number     Number              X              Y              Z
 -------------------------------------------------------------------
      1        6          -0.000449746    0.000031810    0.000457546
      2        6           0.000619853    0.000109053    0.000294860
      3        6           0.001545155   -0.000130347    0.000149619
      4        6           0.001101073    0.000263362   -0.000304427
      5        6          -0.000385352    0.000022273   -0.000431967
      6        6          -0.000398941    0.000090236   -0.000125651
      7        1           0.000949902    0.000047012   -0.001230377
      8        1          -0.000163049    0.000094479   -0.001443019
      9        1          -0.000651429    0.000078933    0.001261902
     10        1           0.000575715   -0.000154757    0.001458387
     11        1           0.001568226   -0.000063947    0.000231319
     12        6           0.000687689    0.002472631   -0.000564316
     13        8          -0.002973233   -0.001150637    0.001593423
     14        1          -0.000371843   -0.002977465    0.000531228
     15        6          -0.000480184    0.001161374   -0.000363535
     16        1          -0.000055645    0.000588516    0.001247016
     17        1           0.000301997    0.001244554   -0.000535785
     18        1          -0.001375311    0.000317877   -0.000103122
     19        8          -0.002035325   -0.001306253   -0.001681204
     20        1           0.000547119   -0.002569375    0.002719229
     21        1           0.002393643    0.002308815   -0.001402332
     22        1          -0.000950312   -0.000478145   -0.001758793
 -------------------------------------------------------------------
 Cartesian Forces:  Max     0.002977465 RMS     0.001189836

 GradGradGradGradGradGradGradGradGradGradGradGradGradGradGradGradGradGrad
 Berny optimization.
 FormGI is forming the generalized inverse of G from B-inverse, IUseBI=4.
 GSVD:  received Info=                   1 from GESDD.
 Internal  Forces:  Max     0.006016199 RMS     0.001359857
 Search for a local minimum.
 Step number   1 out of a maximum of  113
 All quantities printed in internal units (Hartrees-Bohrs-Radians)
 Mixed Optimization -- RFO/linear search
 Second derivative matrix not updated -- first step.
 ITU=  0
     Eigenvalues ---    0.00230   0.00523   0.00582   0.01457   0.01473
     Eigenvalues ---    0.01527   0.02173   0.02193   0.02200   0.02205
     Eigenvalues ---    0.02212   0.02219   0.02224   0.02232   0.04629
     Eigenvalues ---    0.05165   0.05604   0.05740   0.05859   0.06630
     Eigenvalues ---    0.07789   0.12170   0.15997   0.16000   0.16000
     Eigenvalues ---    0.16000   0.16000   0.16000   0.16000   0.16000
     Eigenvalues ---    0.16000   0.16000   0.17419   0.20058   0.22000
     Eigenvalues ---    0.22000   0.23477   0.24998   0.25000   0.30522
     Eigenvalues ---    0.30962   0.34239   0.35010   0.35053   0.35101
     Eigenvalues ---    0.35850   0.36021   0.36047   0.36070   0.36081
     Eigenvalues ---    0.42627   0.42728   0.42984   0.46679   0.46947
     Eigenvalues ---    0.47249   0.47577   0.53877   0.54951   0.55682
 RFO step:  Lambda=-8.47708131D-04 EMin= 2.30000000D-03
 Linear search not attempted -- first point.
 Iteration  1 RMS(Cart)=  0.07197885 RMS(Int)=  0.00168727
 Iteration  2 RMS(Cart)=  0.00267791 RMS(Int)=  0.00001170
 Iteration  3 RMS(Cart)=  0.00000480 RMS(Int)=  0.00001113
 Iteration  4 RMS(Cart)=  0.00000000 RMS(Int)=  0.00001113
 Variable       Old X    -DE/DX   Delta X   Delta X   Delta X     New X
                                 (Linear)    (Quad)   (Total)
    R1        2.63092   0.00098   0.00000   0.00209   0.00209   2.63301
    R2        2.62355   0.00087   0.00000   0.00177   0.00176   2.62532
    R3        2.04008   0.00156   0.00000   0.00431   0.00431   2.04438
    R4        2.63046   0.00184   0.00000   0.00398   0.00398   2.63444
    R5        2.04317   0.00140   0.00000   0.00391   0.00391   2.04708
    R6        2.63701   0.00172   0.00000   0.00376   0.00376   2.64077
    R7        2.86085   0.00430   0.00000   0.01387   0.01387   2.87471
    R8        2.62214   0.00092   0.00000   0.00191   0.00191   2.62405
    R9        2.03972   0.00138   0.00000   0.00382   0.00382   2.04354
   R10        2.63109   0.00092   0.00000   0.00189   0.00189   2.63298
   R11        2.04049   0.00157   0.00000   0.00436   0.00436   2.04485
   R12        2.03955   0.00159   0.00000   0.00439   0.00439   2.04394
   R13        2.67689   0.00602   0.00000   0.01397   0.01397   2.69086
   R14        2.86934   0.00363   0.00000   0.01187   0.01187   2.88121
   R15        2.06928   0.00196   0.00000   0.00570   0.00570   2.07498
   R16        1.82844   0.00421   0.00000   0.00781   0.00781   1.83625
   R17        3.69800   0.00177   0.00000   0.03752   0.03752   3.73553
   R18        2.05659   0.00131   0.00000   0.00372   0.00372   2.06032
   R19        2.05589   0.00132   0.00000   0.00377   0.00377   2.05965
   R20        2.05511   0.00137   0.00000   0.00390   0.00390   2.05902
   R21        1.81231   0.00362   0.00000   0.00649   0.00649   1.81880
   R22        1.81875   0.00352   0.00000   0.00640   0.00640   1.82515
    A1        2.09396   0.00020   0.00000   0.00074   0.00074   2.09470
    A2        2.09262  -0.00011   0.00000  -0.00043  -0.00043   2.09219
    A3        2.09658  -0.00009   0.00000  -0.00031  -0.00031   2.09627
    A4        2.10778   0.00026   0.00000   0.00127   0.00127   2.10905
    A5        2.09338  -0.00053   0.00000  -0.00309  -0.00309   2.09029
    A6        2.08201   0.00026   0.00000   0.00182   0.00182   2.08382
    A7        2.07411  -0.00085   0.00000  -0.00319  -0.00320   2.07091
    A8        2.11201   0.00013   0.00000   0.00046   0.00044   2.11244
    A9        2.09701   0.00073   0.00000   0.00284   0.00282   2.09983
   A10        2.10410   0.00039   0.00000   0.00181   0.00181   2.10591
   A11        2.07307   0.00009   0.00000   0.00088   0.00088   2.07395
   A12        2.10583  -0.00048   0.00000  -0.00264  -0.00264   2.10319
   A13        2.09837   0.00012   0.00000   0.00029   0.00029   2.09867
   A14        2.09193  -0.00006   0.00000  -0.00016  -0.00016   2.09177
   A15        2.09288  -0.00006   0.00000  -0.00013  -0.00013   2.09275
   A16        2.08802  -0.00012   0.00000  -0.00088  -0.00088   2.08714
   A17        2.09755   0.00006   0.00000   0.00047   0.00047   2.09802
   A18        2.09761   0.00005   0.00000   0.00041   0.00041   2.09802
   A19        1.94963   0.00100   0.00000   0.01024   0.01023   1.95986
   A20        1.94645  -0.00039   0.00000   0.00126   0.00122   1.94767
   A21        1.88108   0.00021   0.00000   0.00149   0.00150   1.88258
   A22        1.86734   0.00004   0.00000   0.00244   0.00239   1.86973
   A23        1.92148  -0.00066   0.00000  -0.00933  -0.00934   1.91214
   A24        1.89760  -0.00025   0.00000  -0.00678  -0.00679   1.89081
   A25        1.86956   0.00527   0.00000   0.03274   0.03274   1.90230
   A26        2.77007   0.00271   0.00000   0.01082   0.01082   2.78089
   A27        1.91580   0.00047   0.00000   0.00302   0.00301   1.91881
   A28        1.93174   0.00046   0.00000   0.00302   0.00302   1.93476
   A29        1.91482   0.00028   0.00000   0.00148   0.00148   1.91630
   A30        1.89772  -0.00042   0.00000  -0.00211  -0.00212   1.89560
   A31        1.89685  -0.00042   0.00000  -0.00295  -0.00295   1.89390
   A32        1.90647  -0.00040   0.00000  -0.00263  -0.00263   1.90384
   A33        1.87890   0.00050   0.00000   0.00451   0.00450   1.88340
   A34        1.64597   0.00010   0.00000   0.00468   0.00464   1.65061
   A35        1.82248   0.00090   0.00000   0.01000   0.00997   1.83246
    D1        0.00367  -0.00002   0.00000  -0.00172  -0.00173   0.00194
    D2       -3.13174  -0.00001   0.00000  -0.00091  -0.00091  -3.13265
    D3        3.13876  -0.00003   0.00000  -0.00181  -0.00181   3.13695
    D4        0.00334  -0.00002   0.00000  -0.00099  -0.00099   0.00235
    D5        0.00077  -0.00002   0.00000  -0.00115  -0.00115  -0.00038
    D6        3.13769  -0.00001   0.00000  -0.00013  -0.00013   3.13756
    D7       -3.13430  -0.00001   0.00000  -0.00106  -0.00107  -3.13537
    D8        0.00262   0.00000   0.00000  -0.00004  -0.00004   0.00258
    D9       -0.00775   0.00008   0.00000   0.00499   0.00498  -0.00276
   D10       -3.13755  -0.00010   0.00000  -0.00580  -0.00579   3.13984
   D11        3.12770   0.00007   0.00000   0.00416   0.00415   3.13186
   D12       -0.00210  -0.00011   0.00000  -0.00663  -0.00662  -0.00873
   D13        0.00751  -0.00009   0.00000  -0.00544  -0.00544   0.00207
   D14       -3.11325  -0.00016   0.00000  -0.00810  -0.00810  -3.12135
   D15        3.13742   0.00008   0.00000   0.00524   0.00524  -3.14053
   D16        0.01666   0.00002   0.00000   0.00258   0.00258   0.01924
   D17        2.36931  -0.00024   0.00000  -0.02097  -0.02097   2.34835
   D18       -1.82515   0.00023   0.00000  -0.01003  -0.01001  -1.83516
   D19        0.25642  -0.00017   0.00000  -0.01667  -0.01667   0.23975
   D20       -0.76034  -0.00041   0.00000  -0.03186  -0.03188  -0.79222
   D21        1.32839   0.00006   0.00000  -0.02093  -0.02092   1.30746
   D22       -2.87324  -0.00034   0.00000  -0.02757  -0.02758  -2.90082
   D23       -0.00320   0.00005   0.00000   0.00264   0.00264  -0.00056
   D24        3.14088   0.00002   0.00000   0.00124   0.00124  -3.14107
   D25        3.11717   0.00012   0.00000   0.00539   0.00539   3.12256
   D26       -0.02194   0.00009   0.00000   0.00399   0.00399  -0.01795
   D27       -0.00100   0.00001   0.00000   0.00069   0.00069  -0.00030
   D28       -3.13792  -0.00001   0.00000  -0.00033  -0.00033  -3.13824
   D29        3.13811   0.00004   0.00000   0.00210   0.00210   3.14021
   D30        0.00119   0.00002   0.00000   0.00108   0.00108   0.00226
   D31       -0.98219  -0.00071   0.00000  -0.03685  -0.03682  -1.01901
   D32       -3.11694  -0.00088   0.00000  -0.04631  -0.04632   3.11992
   D33        1.10706  -0.00024   0.00000  -0.03457  -0.03459   1.07247
   D34       -1.05939  -0.00045   0.00000  -0.00990  -0.00990  -1.06929
   D35        1.03546  -0.00038   0.00000  -0.00866  -0.00866   1.02680
   D36        3.14056  -0.00040   0.00000  -0.00904  -0.00904   3.13153
   D37        1.07735   0.00058   0.00000   0.00516   0.00515   1.08250
   D38       -3.11099   0.00065   0.00000   0.00639   0.00639  -3.10460
   D39       -1.00588   0.00063   0.00000   0.00602   0.00601  -0.99987
   D40       -3.13111  -0.00032   0.00000  -0.00817  -0.00817  -3.13929
   D41       -1.03626  -0.00025   0.00000  -0.00694  -0.00694  -1.04320
   D42        1.06884  -0.00027   0.00000  -0.00732  -0.00731   1.06153
   D43        0.57018   0.00030   0.00000   0.01960   0.01960   0.58978
   D44        1.76875   0.00077   0.00000   0.08050   0.08050   1.84926
   D45       -0.09215  -0.00031   0.00000   0.06742   0.06741  -0.02474
   D46       -1.73474  -0.00060   0.00000  -0.01019  -0.01023  -1.74497
         Item               Value     Threshold  Converged?
 Maximum Force            0.006016     0.000450     NO 
 RMS     Force            0.001360     0.000300     NO 
 Maximum Displacement     0.353405     0.001800     NO 
 RMS     Displacement     0.073518     0.001200     NO 
 Predicted change in Energy=-4.341805D-04
 GradGradGradGradGradGradGradGradGradGradGradGradGradGradGradGradGradGrad

                          Input orientation:                          
 ---------------------------------------------------------------------
 Center     Atomic      Atomic             Coordinates (Angstroms)
 Number     Number       Type             X           Y           Z
 ---------------------------------------------------------------------
      1          6           0        2.183129    0.421308   -1.044784
      2          6           0        0.803268    0.446931   -1.236320
      3          6           0       -0.070045    0.390588   -0.151133
      4          6           0        0.465907    0.304267    1.136550
      5          6           0        1.840545    0.277689    1.331065
      6          6           0        2.705004    0.336361    0.239921
      7          1           0        2.846482    0.461504   -1.898439
      8          1           0        0.400682    0.504840   -2.240332
      9          1           0       -0.209018    0.241269    1.979118
     10          1           0        2.241381    0.210143    2.333903
     11          1           0        3.775612    0.312494    0.391922
     12          6           0       -1.577257    0.420544   -0.355005
     13          8           0       -2.248013   -0.560462    0.429421
     14          1           0       -1.905349   -1.439562    0.197110
     15          6           0       -2.167355    1.775499    0.019833
     16          1           0       -1.981500    1.983235    1.073872
     17          1           0       -1.720392    2.571472   -0.575633
     18          1           0       -3.244121    1.767845   -0.146641
     19          8           0       -0.621779   -2.837449   -0.355998
     20          1           0       -0.401635   -3.361252    0.420860
     21          1           0        0.117667   -2.225289   -0.462326
     22          1           0       -1.776839    0.239405   -1.419444
 ---------------------------------------------------------------------
                    Distance matrix (angstroms):
                    1          2          3          4          5
     1  C    0.000000
     2  C    1.393326   0.000000
     3  C    2.424119   1.394088   0.000000
     4  C    2.778627   2.400974   1.397435   0.000000
     5  C    2.404714   2.774175   2.420746   1.388586   0.000000
     6  C    1.389258   2.410002   2.802992   2.412163   1.393315
     7  H    1.081841   2.147868   3.400624   3.860443   3.387534
     8  H    2.147889   1.083268   2.144619   3.383462   3.857418
     9  H    3.859892   3.377286   2.139995   1.081394   2.149886
    10  H    3.385781   3.856258   3.398626   2.143553   1.082089
    11  H    2.147549   3.391765   3.884596   3.392445   2.151205
    12  C    3.823127   2.538565   1.521233   2.532347   3.813740
    13  O    4.772020   3.619372   2.446443   2.934817   4.269868
    14  H    4.660557   3.598636   2.615159   3.089715   4.273935
    15  C    4.679098   3.488211   2.519110   3.216466   4.475045
    16  H    4.926708   3.930922   2.773233   2.968613   4.193216
    17  H    4.481159   3.364379   2.767689   3.584926   4.645128
    18  H    5.663468   4.394721   3.460002   4.189624   5.500728
    19  O    4.354473   3.686853   3.281250   3.644330   4.314315
    20  H    4.810081   4.324384   3.809649   3.834171   4.370096
    21  H    3.407325   2.865288   2.641001   3.012695   3.528379
    22  H    3.981810   2.594910   2.131810   3.401063   4.544473
                    6          7          8          9         10
     6  C    0.000000
     7  H    2.146685   0.000000
     8  H    3.389681   2.469961   0.000000
     9  H    3.394904   4.941663   4.271412   0.000000
    10  H    2.148404   4.282761   4.939498   2.476146   0.000000
    11  H    1.081607   2.476133   4.284379   4.289701   2.477020
    12  C    4.324209   4.685439   2.733827   2.711522   4.675093
    13  O    5.037120   5.693613   3.908713   2.683624   4.937160
    14  H    4.940757   5.530395   3.878092   2.979645   4.948008
    15  C    5.085218   5.526746   3.649347   3.166661   5.219408
    16  H    5.036962   5.870239   4.341013   2.644921   4.750185
    17  H    5.024438   5.201743   3.397227   3.773705   5.453157
    18  H    6.131122   6.470763   4.388999   4.007634   6.218542
    19  O    4.636343   5.029021   3.970774   3.886084   4.972029
    20  H    4.832834   5.526561   4.761546   3.929813   4.837368
    21  H    3.708034   4.089952   3.270322   3.485869   4.273218
    22  H    4.780148   4.653372   2.342202   3.742765   5.498597
                   11         12         13         14         15
    11  H    0.000000
    12  C    5.405810   0.000000
    13  O    6.086667   1.423942   0.000000
    14  H    5.948190   1.967859   0.971702   0.000000
    15  C    6.131696   1.524671   2.372968   3.230586   0.000000
    16  H    6.033305   2.155714   2.637563   3.534126   1.090273
    17  H    6.020399   2.166946   3.331295   4.088977   1.089922
    18  H    7.189210   2.153385   2.597131   3.492555   1.089585
    19  O    5.460639   3.395212   2.906233   1.976757   4.879482
    20  H    5.562970   4.035596   3.354640   2.450328   5.446540
    21  H    4.533281   3.143998   3.027095   2.268219   4.632506
    22  H    5.840899   1.098033   2.068839   2.334244   2.140936
                   16         17         18         19         20
    16  H    0.000000
    17  H    1.770612   0.000000
    18  H    1.769253   1.775274   0.000000
    19  O    5.208874   5.523733   5.303701   0.000000
    20  H    5.611233   6.158679   5.891470   0.962466   0.000000
    21  H    4.947533   5.138114   5.229378   0.965830   1.529740
    22  H    3.049501   2.480674   2.471654   3.454289   4.271140
                   21         22
    21  H    0.000000
    22  H    3.252683   0.000000
 Stoichiometry    C8H12O2
 Framework group  C1[X(C8H12O2)]
 Deg. of freedom    60
 Full point group                 C1      NOp   1
 Largest Abelian subgroup         C1      NOp   1
 Largest concise Abelian subgroup C1      NOp   1
                         Standard orientation:                         
 ---------------------------------------------------------------------
 Center     Atomic      Atomic             Coordinates (Angstroms)
 Number     Number       Type             X           Y           Z
 ---------------------------------------------------------------------
      1          6           0       -2.195357   -0.252742   -1.062343
      2          6           0       -0.818445   -0.350427   -1.251893
      3          6           0        0.052158   -0.384190   -0.163595
      4          6           0       -0.483305   -0.314641    1.125307
      5          6           0       -1.854960   -0.216413    1.317879
      6          6           0       -2.716831   -0.185261    0.223560
      7          1           0       -2.856381   -0.223421   -1.918245
      8          1           0       -0.415678   -0.394403   -2.256539
      9          1           0        0.190623   -0.321469    1.970994
     10          1           0       -2.255423   -0.162879    2.321712
     11          1           0       -3.784937   -0.105617    0.374165
     12          6           0        1.556014   -0.493051   -0.365374
     13          8           0        2.278580    0.418372    0.456098
     14          1           0        1.987774    1.323624    0.255711
     15          6           0        2.066010   -1.892483   -0.039624
     16          1           0        1.864200   -2.127806    1.005647
     17          1           0        1.576678   -2.639085   -0.664979
     18          1           0        3.142128   -1.940502   -0.203515
     19          8           0        0.788648    2.812224   -0.248011
     20          1           0        0.595637    3.318892    0.547209
     21          1           0        0.015813    2.247813   -0.378371
     22          1           0        1.770048   -0.284668   -1.421992
 ---------------------------------------------------------------------
 Rotational constants (GHZ):      1.6177654      0.9696300      0.7915943
 Standard basis: Aug-CC-pVTZ (5D, 7F)
 There are   850 symmetry adapted cartesian basis functions of A   symmetry.
 There are   736 symmetry adapted basis functions of A   symmetry.
   736 basis functions,  1044 primitive gaussians,   850 cartesian basis functions
    38 alpha electrons       38 beta electrons
       nuclear repulsion energy       526.3018917070 Hartrees.
 NAtoms=   22 NActive=   22 NUniq=   22 SFac= 1.00D+00 NAtFMM=   60 NAOKFM=F Big=F
 Integral buffers will be    131072 words long.
 Raffenetti 2 integral format.
 Two-electron integral symmetry is turned on.
 Nuclear repulsion after empirical dispersion term =      526.2838944919 Hartrees.
 One-electron integrals computed using PRISM.
 NBasis=   736 RedAO= T EigKep=  1.59D-06  NBF=   736
 NBsUse=   733 1.00D-06 EigRej=  8.63D-07 NBFU=   733
 Initial guess from the checkpoint file:  "98-85-1.chk"
 B after Tr=     0.000000    0.000000    0.000000
         Rot=    0.999443   -0.017698    0.001777    0.028231 Ang=  -3.82 deg.
 ExpMin= 2.53D-02 ExpMax= 1.53D+04 ExpMxC= 5.22D+02 IAcc=3 IRadAn=         5 AccDes= 0.00D+00
 Harris functional with IExCor=  402 and IRadAn=       5 diagonalized for initial guess.
 HarFok:  IExCor=  402 AccDes= 0.00D+00 IRadAn=         5 IDoV= 1 UseB2=F ITyADJ=14
 ICtDFT=  3500011 ScaDFX=  1.000000  1.000000  1.000000  1.000000
 FoFCou: FMM=F IPFlag=           0 FMFlag=      100000 FMFlg1=           0
         NFxFlg=           0 DoJE=T BraDBF=F KetDBF=T FulRan=T
         wScrn=  0.000000 ICntrl=     500 IOpCl=  0 I1Cent=   200000004 NGrid=           0
         NMat0=    1 NMatS0=      1 NMatT0=    0 NMatD0=    1 NMtDS0=    0 NMtDT0=    0
 Petite list used in FoFCou.
 Requested convergence on RMS density matrix=1.00D-08 within 128 cycles.
 Requested convergence on MAX density matrix=1.00D-06.
 Requested convergence on             energy=1.00D-06.
 No special actions if energy rises.
 SCF Done:  E(RB3LYP) =  -462.734562318     A.U. after   10 cycles
            NFock= 10  Conv=0.58D-08     -V/T= 2.0063
 Calling FoFJK, ICntrl=      2127 FMM=F ISym2X=0 I1Cent= 0 IOpClX= 0 NMat=1 NMatS=1 NMatT=0.
 ***** Axes restored to original set *****
 -------------------------------------------------------------------
 Center     Atomic                   Forces (Hartrees/Bohr)
 Number     Number              X              Y              Z
 -------------------------------------------------------------------
      1        6          -0.000387528    0.000015735    0.000058230
      2        6          -0.000242888   -0.000587109    0.000209500
      3        6          -0.000314884   -0.000966746    0.000353184
      4        6          -0.000409804   -0.000503759   -0.000636136
      5        6           0.000091480    0.000015680   -0.000062591
      6        6          -0.000156644    0.000044070    0.000099596
      7        1          -0.000025331    0.000062309   -0.000046533
      8        1           0.000097035    0.000019008   -0.000055607
      9        1           0.000029595    0.000041891    0.000188545
     10        1          -0.000046389   -0.000003244    0.000013568
     11        1          -0.000000467    0.000027975    0.000022687
     12        6           0.000519985   -0.000071986   -0.001845466
     13        8          -0.000615671   -0.000221460    0.001519027
     14        1           0.000561650    0.002907875   -0.000732874
     15        6          -0.000337925   -0.000789784    0.000606778
     16        1          -0.000057427    0.000124715    0.000081353
     17        1           0.000234971   -0.000301993   -0.000032849
     18        1          -0.000009744   -0.000057287   -0.000019664
     19        8           0.000690894    0.000673770    0.000362127
     20        1           0.000141946   -0.000335351   -0.000272411
     21        1          -0.000070788    0.000003529   -0.000014514
     22        1           0.000307935   -0.000097838    0.000204047
 -------------------------------------------------------------------
 Cartesian Forces:  Max     0.002907875 RMS     0.000565754

 GradGradGradGradGradGradGradGradGradGradGradGradGradGradGradGradGradGrad
 Berny optimization.
 Using GEDIIS/GDIIS optimizer.
 FormGI is forming the generalized inverse of G from B-inverse, IUseBI=4.
 GSVD:  received Info=                   1 from GESDD.
 Internal  Forces:  Max     0.007530722 RMS     0.000972160
 Search for a local minimum.
 Step number   2 out of a maximum of  113
 All quantities printed in internal units (Hartrees-Bohrs-Radians)
 Mixed Optimization -- En-DIIS/RFO-DIIS
 Update second derivatives using D2CorX and points    1    2
 DE= -1.26D-04 DEPred=-4.34D-04 R= 2.89D-01
 Trust test= 2.89D-01 RLast= 1.55D-01 DXMaxT set to 3.00D-01
 ITU=  0  0
 Use linear search instead of GDIIS.
     Eigenvalues ---    0.00224   0.00522   0.00581   0.01446   0.01520
     Eigenvalues ---    0.01682   0.02175   0.02193   0.02198   0.02204
     Eigenvalues ---    0.02212   0.02219   0.02223   0.02232   0.04374
     Eigenvalues ---    0.05205   0.05569   0.05710   0.05838   0.06456
     Eigenvalues ---    0.07923   0.12163   0.15811   0.15998   0.16000
     Eigenvalues ---    0.16000   0.16000   0.16000   0.16000   0.16000
     Eigenvalues ---    0.16000   0.17313   0.19652   0.21698   0.21996
     Eigenvalues ---    0.22007   0.23538   0.24993   0.26859   0.30635
     Eigenvalues ---    0.32941   0.34381   0.34882   0.35077   0.35081
     Eigenvalues ---    0.35722   0.35914   0.36032   0.36060   0.36082
     Eigenvalues ---    0.42625   0.42751   0.44461   0.46751   0.47041
     Eigenvalues ---    0.47253   0.47560   0.54279   0.55429   0.55924
 RFO step:  Lambda=-1.40423844D-04 EMin= 2.24137637D-03
 Quartic linear search produced a step of -0.42209.
 Iteration  1 RMS(Cart)=  0.04847627 RMS(Int)=  0.00047140
 Iteration  2 RMS(Cart)=  0.00087571 RMS(Int)=  0.00000575
 Iteration  3 RMS(Cart)=  0.00000042 RMS(Int)=  0.00000575
 Variable       Old X    -DE/DX   Delta X   Delta X   Delta X     New X
                                 (Linear)    (Quad)   (Total)
    R1        2.63301  -0.00039  -0.00088   0.00074  -0.00014   2.63286
    R2        2.62532   0.00003  -0.00074   0.00108   0.00034   2.62565
    R3        2.04438   0.00002  -0.00182   0.00255   0.00073   2.04511
    R4        2.63444  -0.00050  -0.00168   0.00168   0.00000   2.63445
    R5        2.04708   0.00002  -0.00165   0.00230   0.00065   2.04773
    R6        2.64077  -0.00054  -0.00159   0.00151  -0.00008   2.64069
    R7        2.87471  -0.00130  -0.00585   0.00565  -0.00021   2.87451
    R8        2.62405  -0.00012  -0.00081   0.00097   0.00017   2.62421
    R9        2.04354   0.00013  -0.00161   0.00243   0.00082   2.04435
   R10        2.63298  -0.00018  -0.00080   0.00090   0.00010   2.63309
   R11        2.04485   0.00000  -0.00184   0.00253   0.00069   2.04555
   R12        2.04394   0.00000  -0.00185   0.00256   0.00071   2.04465
   R13        2.69086  -0.00196  -0.00590   0.00552  -0.00037   2.69049
   R14        2.88121  -0.00068  -0.00501   0.00561   0.00060   2.88181
   R15        2.07498  -0.00024  -0.00241   0.00291   0.00051   2.07549
   R16        1.83625  -0.00231  -0.00330   0.00209  -0.00121   1.83504
   R17        3.73553   0.00024  -0.01584   0.02315   0.00731   3.74284
   R18        2.06032   0.00010  -0.00157   0.00233   0.00076   2.06108
   R19        2.05965  -0.00011  -0.00159   0.00201   0.00042   2.06008
   R20        2.05902   0.00001  -0.00165   0.00229   0.00065   2.05966
   R21        1.81880  -0.00001  -0.00274   0.00379   0.00105   1.81984
   R22        1.82515  -0.00005  -0.00270   0.00369   0.00099   1.82614
    A1        2.09470   0.00003  -0.00031   0.00053   0.00022   2.09492
    A2        2.09219  -0.00007   0.00018  -0.00050  -0.00031   2.09188
    A3        2.09627   0.00004   0.00013  -0.00004   0.00009   2.09637
    A4        2.10905  -0.00015  -0.00054   0.00028  -0.00025   2.10879
    A5        2.09029  -0.00004   0.00130  -0.00195  -0.00064   2.08965
    A6        2.08382   0.00019  -0.00077   0.00168   0.00091   2.08474
    A7        2.07091   0.00033   0.00135  -0.00117   0.00018   2.07109
    A8        2.11244  -0.00007  -0.00018   0.00011  -0.00007   2.11237
    A9        2.09983  -0.00026  -0.00119   0.00105  -0.00014   2.09969
   A10        2.10591  -0.00007  -0.00076   0.00085   0.00009   2.10599
   A11        2.07395   0.00018  -0.00037   0.00113   0.00076   2.07471
   A12        2.10319  -0.00011   0.00111  -0.00192  -0.00081   2.10238
   A13        2.09867  -0.00012  -0.00012  -0.00006  -0.00018   2.09848
   A14        2.09177   0.00001   0.00007  -0.00015  -0.00008   2.09169
   A15        2.09275   0.00011   0.00006   0.00021   0.00026   2.09301
   A16        2.08714  -0.00002   0.00037  -0.00045  -0.00008   2.08705
   A17        2.09802   0.00003  -0.00020   0.00031   0.00011   2.09813
   A18        2.09802  -0.00001  -0.00017   0.00014  -0.00004   2.09799
   A19        1.95986  -0.00217  -0.00432  -0.00415  -0.00846   1.95140
   A20        1.94767   0.00197  -0.00052   0.00555   0.00504   1.95272
   A21        1.88258  -0.00042  -0.00063  -0.00036  -0.00102   1.88156
   A22        1.86973   0.00005  -0.00101   0.00074  -0.00024   1.86949
   A23        1.91214   0.00070   0.00394  -0.00267   0.00126   1.91340
   A24        1.89081  -0.00007   0.00287   0.00093   0.00379   1.89461
   A25        1.90230  -0.00753  -0.01382  -0.00837  -0.02219   1.88011
   A26        2.78089  -0.00312  -0.00457  -0.00095  -0.00551   2.77537
   A27        1.91881   0.00028  -0.00127   0.00283   0.00156   1.92036
   A28        1.93476  -0.00054  -0.00127  -0.00045  -0.00172   1.93304
   A29        1.91630  -0.00001  -0.00062   0.00093   0.00031   1.91661
   A30        1.89560   0.00009   0.00089  -0.00115  -0.00025   1.89535
   A31        1.89390  -0.00005   0.00124  -0.00145  -0.00020   1.89370
   A32        1.90384   0.00025   0.00111  -0.00079   0.00032   1.90416
   A33        1.88340   0.00077  -0.00190   0.00549   0.00359   1.88699
   A34        1.65061  -0.00016  -0.00196   0.00238   0.00043   1.65104
   A35        1.83246   0.00006  -0.00421   0.00622   0.00202   1.83448
    D1        0.00194   0.00010   0.00073   0.00226   0.00298   0.00493
[...]
 009498,-0.00292926,0.00063113,0.00021143,0.00019664,0.00006031,-0.0000
 4798,-0.00101454,0.00001423,-0.01457795,0.45807614,0.00381777,-0.00004
 414,-0.00384863,0.02310033,-0.00132449,0.00742490,-0.02453794,-0.00184
 473,-0.09839465,-0.03218649,0.00226728,0.00207279,-0.00236662,0.001373
 69,-0.00637272,0.00057016,-0.00006092,-0.00200648,0.00129034,-0.000006
 03,0.00020003,0.00256397,0.00013937,-0.00037268,-0.00058032,-0.0004960
 8,-0.00125299,-0.00169354,-0.00009310,-0.00025432,-0.00001579,0.000002
 03,-0.00003606,0.02522552,0.03777902,0.58099689,-0.00181792,0.00196196
 ,0.00071585,-0.00365355,-0.00099936,-0.00444831,-0.02653153,-0.0296447
 8,0.02931814,-0.00030672,-0.00061663,-0.00006678,0.00128269,0.00042548
 ,0.00086163,-0.00083273,-0.00011950,0.00113565,-0.00065730,0.00028816,
 0.00002309,0.00010734,-0.00073904,0.00020458,-0.00096171,-0.00016195,0
 .00030970,-0.00000681,-0.00016826,-0.00015969,-0.00014134,-0.00009516,
 -0.00000059,-0.09901822,-0.01755072,0.04255085,0.21762562,0.00023805,0
 .00036758,0.00084297,-0.00199726,-0.00024034,-0.00174978,-0.01252203,-
 0.00555762,0.00659950,0.00019550,0.00186128,0.00156949,-0.00056472,0.0
 0034658,-0.00003071,-0.00039757,-0.00009143,-0.00057495,-0.00035948,0.
 00005861,0.00002983,0.00046939,-0.00026452,0.00008630,0.00038741,-0.00
 065608,-0.00034587,-0.00024424,-0.00015150,-0.00014005,-0.00008449,-0.
 00004165,-0.00005555,-0.04085274,-0.13352915,0.05641947,-0.09825644,0.
 57877220,-0.00046925,-0.00047285,0.00012521,0.00115940,0.00037894,0.00
 068322,0.00882089,0.00531247,0.00099153,-0.00104988,-0.00191974,-0.003
 19706,0.00064446,-0.00087163,0.00138382,-0.00011624,0.00015276,0.00047
 688,0.00015632,-0.00002059,-0.00000754,-0.00062811,0.00030997,0.000752
 54,-0.00025980,0.00076108,0.00192507,0.00026970,0.00006192,0.00007784,
 -0.00003023,0.00014215,0.00019539,0.04659093,0.03216518,-0.12472189,-0
 .13405328,0.00514812,0.18952820,0.00018774,0.00009546,0.00013616,-0.00
 065095,0.00033354,0.00058116,0.00132245,-0.00194696,0.00011562,-0.0004
 0760,0.00032418,-0.00048469,-0.00037906,0.00018333,-0.00004777,-0.0000
 7551,-0.00002825,-0.00025100,-0.00000103,-0.00002461,-0.00000644,0.000
 10335,-0.00010151,-0.00011310,0.00017600,-0.00026648,-0.00003223,-0.00
 001386,-0.00005735,0.00000239,0.00000849,-0.00001668,-0.00001172,0.006
 26500,-0.02136150,-0.00481262,-0.09527330,0.16962531,0.05627427,0.0920
 2297,0.00055894,-0.00044330,-0.00000118,0.00048363,-0.00021586,0.00044
 316,-0.00051406,0.00147375,-0.00162024,0.00026699,-0.00018900,0.000066
 65,-0.00024934,-0.00013598,0.00000391,0.00045971,-0.00003784,-0.000273
 14,0.00016949,0.00001668,-0.00004143,-0.00011676,0.00026593,-0.0000165
 0,-0.00028931,-0.00000310,-0.00026606,0.00010420,0.00006187,0.00008917
 ,0.00007694,0.00005893,-0.00000800,0.00728984,-0.02932244,-0.00367181,
 0.13547295,-0.38635191,-0.07131410,-0.13979021,0.41594619,0.00036466,-
 0.00008876,-0.00010715,-0.00007236,-0.00024233,0.00021913,0.00073435,-
 0.00002668,0.00023505,-0.00012689,0.00000511,0.00030510,-0.00033329,0.
 00015094,-0.00002199,0.00003770,-0.00002399,-0.00025587,0.00004481,0.0
 0001839,-0.00001016,0.00000444,0.00011252,-0.00020558,-0.00005994,-0.0
 0040206,-0.00026715,-0.00000654,0.00000761,0.00000619,0.00002004,-0.00
 000349,-0.00003398,-0.00879616,0.02665077,0.00344991,0.06186983,-0.105
 89466,-0.05321760,-0.05464275,0.07269319,0.05532798,-0.00076542,-0.001
 48388,-0.00029765,-0.00099335,0.00055738,-0.00177101,-0.01908715,0.030
 57504,0.00757838,-0.00128803,0.00062765,0.00054791,0.00071517,-0.00111
 095,0.00022211,-0.00070682,0.00011016,0.00053267,-0.00019940,-0.000022
 25,0.00003228,-0.00004886,0.00057769,0.00036670,-0.00016341,0.00031376
 ,-0.00021271,-0.00000930,0.00007615,-0.00006385,0.00000877,0.00011744,
 0.00001261,-0.09302155,0.04744083,0.00982067,0.00770172,-0.02059702,-0
 .00076010,-0.00189660,-0.00246049,0.00237219,0.55994186,0.00013422,-0.
 00045730,-0.00002781,-0.00145678,-0.00088707,0.00073201,0.01277134,-0.
 00089237,-0.00025824,-0.00173441,0.00017489,-0.00078396,0.00040968,-0.
 00000309,-0.00020966,-0.00064311,0.00009583,0.00001296,-0.00008834,0.0
 0008672,0.00002732,-0.00003175,0.00029620,0.00011303,-0.00008384,0.000
 13789,-0.00017379,-0.00010147,-0.00006052,-0.00003834,0.00001425,0.000
 02372,-0.00000266,0.03112532,-0.15020327,-0.02623392,0.00617703,-0.042
 78469,0.00102828,-0.00273866,-0.00212166,0.00274180,0.04216090,0.48797
 718,-0.00047416,0.00001208,-0.00011147,0.00028241,0.00033367,-0.000698
 38,-0.00071528,0.00535743,0.00300973,-0.00188990,0.00016144,-0.0001317
 4,0.00085373,-0.00025409,-0.00039521,-0.00025356,0.00006393,0.00065716
 ,-0.00009199,-0.00001983,-0.00002468,-0.00004788,-0.00023576,0.0001544
 2,-0.00003939,0.00033137,-0.00027786,-0.00004608,-0.00003754,-0.000016
 00,0.00002718,-0.00005624,0.00000082,0.01076466,-0.03610706,-0.0882460
 8,-0.00584038,0.02962537,0.00497494,0.00235698,0.00354790,-0.00280535,
 0.00761432,-0.02762488,0.56494833,0.00039044,0.00003631,0.00017984,-0.
 00048242,-0.00008242,0.00024619,0.00095864,-0.00034762,0.00112040,0.00
 013899,0.00001458,0.00009282,-0.00045604,-0.00012433,0.00002225,0.0000
 8807,0.00002204,-0.00038437,0.00001499,-0.00001251,-0.00000185,0.00002
 821,-0.00001746,-0.00010062,-0.00014752,0.00043141,-0.00018410,0.00000
 959,0.00002940,0.00001139,0.00001194,0.00002390,-0.00002080,0.00095569
 ,0.00318188,0.01393420,0.00016368,-0.00138399,-0.00080810,-0.00011733,
 -0.00017225,0.00016036,-0.05635628,-0.00934894,-0.04693079,0.05755262,
 -0.00041957,0.00001644,-0.00012750,0.00044741,0.00023581,-0.00017268,-
 0.00150326,0.00083659,0.00045008,0.00011274,0.00010482,-0.00052834,0.0
 0037806,0.00005136,0.00016781,-0.00007171,-0.00004082,0.00039574,-0.00
 000372,-0.00002050,-0.00000295,-0.00005911,-0.00006017,0.00010053,0.00
 025693,-0.00034903,0.00034400,0.00003161,0.00000672,-0.00000744,-0.000
 01755,-0.00002443,0.00003469,-0.00458374,-0.00886034,-0.03196635,-0.00
 011597,0.00315717,0.00095042,0.00018629,0.00037246,0.00000499,-0.00941
 570,-0.05675905,-0.04874355,0.00734464,0.06180738,-0.00031337,0.000013
 04,-0.00004881,0.00043984,0.00007512,-0.00016405,-0.00066530,0.0001559
 3,0.00050622,0.00015691,0.00039209,-0.00006556,0.00034109,0.00009781,0
 .00010508,0.00005747,-0.00006456,0.00027158,0.00001280,-0.00002471,-0.
 00000560,-0.00006540,0.00001020,0.00010911,-0.00025120,-0.00004878,0.0
 0017685,0.00003977,0.00001733,0.00000799,-0.00000731,-0.00001410,0.000
 02203,-0.00068582,-0.00225597,-0.01040065,-0.00033691,0.00018349,0.001
 74462,-0.00005170,0.00015471,0.00021886,-0.04559930,-0.05089078,-0.288
 82845,0.05000618,0.05766496,0.31453538,-0.00004833,0.00002707,0.000034
 60,0.00006808,-0.00006666,0.00000676,-0.00002414,0.00050708,-0.0004988
 6,0.00018159,-0.00000337,0.00002027,-0.00008825,-0.00001378,0.00000255
 ,0.00005978,-0.00000902,-0.00001583,0.00000746,-0.00000156,-0.00000553
 ,0.00001418,-0.00000075,0.00000163,0.00003959,0.00000890,0.00006119,0.
 00000227,0.00000049,0.00000559,0.00000313,0.00000161,0.00000352,0.0038
 3668,0.00747901,-0.00864432,-0.00012624,0.00345812,0.00034982,0.000856
 53,0.00061510,-0.00025329,-0.09335733,-0.07846045,0.06331306,0.0017666
 0,0.00533368,-0.00343155,0.09740313,0.00042446,0.00002046,0.00000447,-
 0.00001162,0.00037410,0.00010483,-0.00056766,0.00016493,-0.00009432,0.
 00043832,0.00013702,0.00030285,-0.00035472,-0.00011531,0.00012208,-0.0
 0002351,-0.00002555,-0.00033907,0.00002781,-0.00000380,0.00001264,0.00
 000655,-0.00014858,-0.00010531,-0.00007232,0.00005364,-0.00010411,0.00
 000580,-0.00000185,-0.00000165,-0.00000053,0.00000841,-0.00001940,-0.0
 1404544,-0.01539718,0.01851350,0.00310106,-0.00816565,-0.00175487,-0.0
 0118445,-0.00047289,0.00129501,-0.07560790,-0.17942370,0.10402967,0.00
 379197,0.00565230,-0.00373085,0.08421164,0.19673046,-0.00001585,-0.000
 06140,0.00001471,-0.00022187,-0.00009498,0.00026536,0.00034125,0.00003
 715,0.00021174,0.00000061,-0.00003836,-0.00046454,-0.00007390,-0.00004
 591,0.00008437,-0.00005229,-0.00000437,-0.00003848,-0.00000324,0.00000
 834,0.00000605,0.00001400,0.00003483,-0.00002681,0.00008115,-0.0000092
 4,0.00015747,0.00000313,0.00001644,-0.00000639,-0.00001221,0.00001850,
 0.00000679,-0.00439069,-0.00546259,0.00313942,0.00049418,-0.00202427,0
 .00069984,0.00011827,-0.00048379,0.00081088,0.06234578,0.10633050,-0.1
 3165782,0.01315251,0.02241743,-0.01585767,-0.06936503,-0.11599434,0.13
 951702,-0.00012537,-0.00020158,-0.00001924,-0.00008079,0.00025295,-0.0
 0053083,0.00010129,0.00266513,0.00125932,0.00013389,0.00013405,0.00045
 881,-0.00004289,-0.00010699,0.00006691,-0.00012216,0.00002177,0.000018
 90,-0.00006422,-0.00001704,0.00000936,-0.00000142,0.00005087,0.0000606
 5,0.00001092,-0.00001439,-0.00003046,-0.00003528,-0.00001082,-0.000027
 38,-0.00001842,0.00001667,-0.00000142,-0.01387181,-0.00067314,-0.00192
 183,0.00162599,-0.00092378,-0.00022496,0.00018995,0.00005359,0.0000752
 4,-0.30374924,-0.00328909,-0.04080454,-0.00423532,-0.00024194,-0.00064
 724,-0.01091647,0.00001185,-0.00195246,0.33061685,0.00021090,0.0004086
 3,0.00003219,0.00059757,0.00003904,0.00028565,0.00028783,-0.00503202,-
 0.00151827,0.00063479,0.00006643,0.00002196,-0.00018719,0.00030426,0.0
 0007804,0.00028813,-0.00005756,-0.00014701,0.00008551,0.00001337,-0.00
 000828,-0.00001741,-0.00021167,-0.00011114,-0.00002545,-0.00014603,0.0
 0011422,0.00004827,-0.00002297,0.00003112,0.00000004,-0.00004595,-0.00
 000109,0.03240892,-0.00213152,0.00515441,-0.00094308,0.00255219,-0.000
 45383,0.00012552,0.00015655,-0.00021086,-0.00629965,-0.04618783,-0.000
 48823,-0.00625654,-0.00088905,-0.00033072,-0.02247789,0.00031951,-0.00
 514848,0.00225211,0.04941623,-0.00044010,0.00009762,-0.00016068,0.0004
 7285,0.00007008,-0.00008016,-0.00045245,-0.00168233,0.00067922,0.00000
 762,0.00010590,-0.00005122,0.00044211,0.00031434,-0.00000663,0.0000489
 8,-0.00004727,0.00040413,0.00001089,-0.00003755,-0.00001138,0.00000842
 ,0.00000255,-0.00000759,0.00003934,-0.00037644,0.00014950,0.00003181,0
 .00002028,0.00000466,-0.00001082,-0.00003972,0.00001183,0.00955840,-0.
 00051119,0.00048110,-0.00054531,0.00088618,-0.00016729,0.00011762,0.00
 001493,-0.00013501,-0.04084159,-0.00058358,-0.05442077,-0.03103932,-0.
 00014207,-0.00345555,0.01849765,-0.00118530,0.00283329,0.04366738,0.00
 248697,0.05380262,0.00034566,-0.00015642,-0.00012535,0.00048959,-0.000
 38793,-0.00038675,-0.00072448,-0.00012880,-0.00002397,0.00014241,-0.00
 025936,0.00052354,0.00012053,-0.00006953,0.00007952,0.00037623,-0.0000
 8613,0.00004073,0.00007284,0.00009397,-0.00003545,-0.00007930,0.000091
 38,0.00004886,-0.00014251,-0.00002001,-0.00018255,0.00002642,0.0000662
 8,0.00003107,0.00003651,0.00006445,-0.00000134,-0.00277752,-0.00236520
 ,0.00241890,-0.00111362,0.00720361,0.00009103,0.00040129,-0.00327319,0
 .00069386,0.00069853,0.00062576,-0.00049584,-0.00006098,-0.00008214,0.
 00002912,-0.00006114,0.00038648,-0.00002234,0.00014479,-0.00022817,0.0
 0001420,0.39596511,0.00050060,0.00009181,0.00008926,0.00049216,-0.0012
 6337,-0.00132074,-0.00128613,-0.00326943,0.00008353,0.00010802,-0.0009
 7260,0.00107296,0.00039126,0.00000846,0.00010796,-0.00040043,0.0003617
 9,-0.00008410,-0.00014783,-0.00007548,0.00008247,0.00006825,0.00014611
 ,-0.00001636,0.00007101,0.00015360,0.00011720,-0.00009838,-0.00004310,
 -0.00011191,-0.00013063,-0.00005304,-0.00002155,0.00091245,0.00286864,
 -0.00179871,0.00556239,-0.00572879,-0.00166179,-0.00487716,-0.00249679
 ,0.00124334,-0.00023887,-0.00024489,0.00019698,0.00000835,0.00002397,-
 0.00001270,-0.00005829,-0.00018321,0.00001740,0.00006103,0.00005936,-0
 .00003243,0.14022442,0.50808944,-0.00107732,0.00041809,-0.00017393,0.0
 0069217,0.00122053,-0.00008891,-0.00009841,-0.00020622,-0.00028389,-0.
 00062099,-0.00082813,-0.00018907,0.00104424,-0.00038202,0.00004356,-0.
 00003998,0.00002081,0.00042912,-0.00008979,-0.00011172,0.00003869,0.00
 007209,-0.00038191,0.00023410,-0.00004478,0.00038324,0.00029264,0.0000
 4247,0.00008511,0.00004487,-0.00002777,-0.00001024,0.00004529,0.001518
 50,0.00090202,-0.00200429,0.00097866,-0.00253939,0.00307133,-0.0014612
 5,0.00143284,-0.00496006,-0.00029440,-0.00034998,0.00046021,-0.0000220
 3,0.00014791,0.00001399,0.00001311,-0.00021675,-0.00001173,-0.00002018
 ,0.00009741,-0.00002586,0.10134096,-0.25146719,0.22589687,0.00019983,-
 0.00001175,0.00013929,-0.00007938,-0.00032174,-0.00012789,-0.00017373,
 -0.00032321,0.00004174,0.00017570,-0.00000260,0.00001951,-0.00005407,0
 .00011047,-0.00003375,-0.00006035,0.00013052,-0.00003326,-0.00001089,-
 0.00002547,0.00001101,-0.00001448,0.00003167,-0.00000595,0.00000525,0.
 00002269,0.00001035,-0.00000362,-0.00004413,-0.00002938,-0.00002998,-0
 .00004336,-0.00000708,-0.00003828,-0.00025405,-0.00009146,-0.00075218,
 0.00063484,0.00108752,0.00084263,0.00039543,-0.00231735,-0.00001110,-0
 .00002012,0.00006118,-0.00000610,0.00002113,-0.00000008,0.00000842,-0.
 00000708,-0.00001116,-0.00000762,0.00001354,-0.00000228,-0.07732152,0.
 11034478,-0.10870193,0.06966348,0.00017091,-0.00001083,0.00007360,-0.0
 0000590,-0.00027507,-0.00013223,-0.00014068,-0.00042892,0.00003813,0.0
 0028058,0.00015184,0.00016182,-0.00027606,0.00020137,-0.00006631,-0.00
 014877,0.00006917,-0.00009027,0.00000666,0.00000487,-0.00001865,-0.000
 00808,0.00001978,-0.00001299,0.00003089,-0.00012489,-0.00008082,-0.000
 01793,-0.00004603,-0.00000635,0.00002687,-0.00000689,-0.00000776,-0.00
 019708,0.00003659,0.00021832,-0.00006879,0.00051794,-0.00062951,0.0007
 6136,-0.00139558,0.00096489,0.00001584,0.00001424,-0.00002774,0.000006
 75,-0.00000501,0.00001404,-0.00000183,0.00003012,0.00000042,-0.0000266
 9,0.00000812,0.00000298,0.06640809,-0.28333551,0.22086211,-0.08058535,
 0.30594101,0.00005424,-0.00005569,-0.00007567,-0.00003806,-0.00016143,
 -0.00006955,0.00004465,-0.00001190,0.00009649,-0.00005857,-0.00001106,
 0.00002573,0.00000884,0.00006076,0.00002435,-0.00004384,-0.00002377,0.
 00005578,0.00001256,0.00003404,-0.00001928,-0.00000867,0.00000296,-0.0
 0000052,0.00004426,-0.00010447,-0.00004655,-0.00003438,-0.00003854,-0.
 00003361,0.00001019,0.00000654,0.00000332,-0.00009034,0.00017118,-0.00
 006293,0.00087876,-0.00100633,-0.00083962,-0.00111922,0.00040466,0.001
 42318,0.00001867,0.00001830,0.00000064,-0.00000063,-0.00001498,-0.0000
 0282,-0.00000461,0.00000439,-0.00000196,-0.00000329,-0.00000764,-0.000
 00008,-0.08047210,0.24418713,-0.20361838,0.08605639,-0.24241248,0.2054
 1927,-0.00044796,0.00031406,0.00017627,0.00027858,-0.00008653,0.000261
 28,0.00061858,-0.00054158,-0.00057618,0.00009602,-0.00060459,0.0001010
 2,0.00011552,-0.00003075,-0.00014235,-0.00061941,0.00026474,-0.0002588
 7,-0.00004979,-0.00006417,0.00003213,0.00001706,0.00005690,-0.00010465
 ,0.00001538,0.00015074,0.00015184,-0.00002667,-0.00000150,0.00000606,-
 0.00001376,-0.00003115,0.00001204,0.00020072,0.00178180,-0.00030895,0.
 00049092,-0.00090903,0.00023510,-0.00355500,-0.00026833,0.00069770,-0.
 00028943,-0.00009949,-0.00007302,0.00005090,-0.00005123,-0.00003017,0.
 00001596,-0.00010661,0.00001397,-0.00005100,0.00007455,0.00000487,-0.3
 1671693,-0.25129590,0.00672146,0.00764644,0.01375935,-0.00525586,0.312
 45018,-0.00132758,-0.00006598,-0.00038942,-0.00072721,0.00022516,0.001
 81494,0.00142458,-0.00030568,-0.00041226,-0.00104843,-0.00029812,-0.00
 183328,0.00031991,-0.00024904,-0.00014753,0.00021552,-0.00035988,0.000
 53762,0.00016202,0.00010643,-0.00009807,0.00000172,-0.00004442,-0.0000
 9918,0.00000923,0.00012124,0.00018955,0.00011342,0.00010140,0.00013641
 ,0.00014089,0.00010389,0.00005715,0.00194589,0.00034133,-0.00038395,-0
 .00087025,-0.00218832,0.00025205,0.00082812,0.00321713,0.00005111,-0.0
 0043115,-0.00024833,0.00005535,0.00006369,0.00001884,-0.00000654,0.000
 06039,-0.00012874,0.00002413,-0.00018400,0.00014948,0.00001542,-0.2082
 4225,-0.21415051,0.03129341,-0.02998255,-0.02142103,-0.00104194,0.2376
 0900,0.23513829,0.00140018,-0.00060300,0.00036665,-0.00092391,-0.00104
 556,-0.00010982,-0.00019876,-0.00004938,0.00101373,0.00070333,0.000654
 06,-0.00026411,-0.00137454,0.00047182,-0.00021179,0.00001355,-0.000022
 75,-0.00041695,0.00007937,0.00011652,-0.00004840,-0.00009777,0.0005456
 8,-0.00035137,0.00004713,-0.00021215,-0.00017627,-0.00000778,-0.000078
 09,-0.00003464,0.00001139,0.00001222,-0.00006674,-0.00017275,-0.000676
 92,0.00096940,-0.00051195,0.00066694,-0.00057071,0.00201603,-0.0002173
 9,0.00034240,0.00001944,0.00007343,-0.00013510,0.00002233,-0.00007025,
 -0.00003347,0.00000253,0.00005034,0.00000043,-0.00000285,-0.00002047,0
 .00000837,-0.02317331,0.00913737,-0.01983329,0.02383898,0.02120652,-0.
 00224312,-0.00154665,-0.03007022,0.02211398,-0.00013702,0.00005408,0.0
 0020484,0.00079568,0.00047403,-0.00248921,-0.01139088,-0.00659516,-0.0
 3199967,-0.00586256,0.00002291,0.00141558,0.00015321,0.00062514,-0.001
 70693,0.00004868,-0.00012263,0.00020846,-0.00002472,-0.00000786,0.0000
 1632,-0.00046845,-0.00012854,0.00121838,0.00025155,-0.00022228,-0.0000
 8344,-0.00052754,0.00004092,-0.00010458,-0.00001197,-0.00001608,0.0000
 8462,-0.06140510,-0.01030735,-0.04813283,0.00219519,-0.00311944,0.0227
 2051,-0.00000619,0.00118713,-0.00046658,0.00287721,0.00467792,0.012429
 30,-0.00026836,0.00245311,0.00100215,0.00035850,-0.00042408,-0.0004438
 2,0.00049833,-0.00059229,0.00040972,0.00017810,-0.00021112,0.00007517,
 0.00002155,0.00000986,0.00000100,-0.00022630,-0.00008097,-0.00014398,0
 .07295110,-0.00027662,-0.00018879,0.00012530,-0.00015583,-0.00000058,-
 0.00002652,0.00374941,0.00270636,0.00227310,-0.00006432,0.00091342,-0.
 00038734,0.00037429,-0.00001798,-0.00011460,0.00005706,0.00005031,0.00
 028882,-0.00002788,-0.00001024,-0.00001524,-0.00024227,0.00009546,0.00
 013605,-0.00011296,-0.00020580,0.00002360,0.00001924,-0.00011506,0.000
 01497,0.00000017,0.00000091,0.00001500,-0.01047142,-0.06115522,-0.0539
 4287,-0.00263911,-0.00188191,0.03243555,-0.00006931,0.00161685,0.00095
 315,-0.00490496,-0.00853288,-0.03012026,0.00279113,-0.00527546,-0.0013
 9900,-0.00060950,0.00057552,0.00046261,0.00016945,0.00123142,0.0006206
 2,0.00013468,0.00001354,-0.00036992,-0.00008365,0.00005470,0.00000027,
 0.00007971,-0.00006314,0.00013128,0.01228270,0.07018860,-0.00071256,0.
 00060872,0.00026239,0.00246357,0.00054943,0.00049211,-0.00247457,-0.00
 280682,-0.00658513,-0.00117509,-0.00029052,0.00071114,0.00062706,0.000
 15399,-0.00038641,0.00005505,-0.00000942,0.00059839,-0.00006373,-0.000
 01784,-0.00000915,-0.00037885,-0.00057484,0.00086904,0.00023021,0.0000
 7408,0.00017646,-0.00011451,-0.00002947,-0.00000819,0.00000027,-0.0001
 2235,0.00008185,-0.05114374,-0.05243396,-0.26076005,0.00662229,0.01230
 390,-0.02390872,0.00131599,-0.00093749,-0.00031879,-0.00164311,-0.0039
 0003,-0.00645733,0.00054415,-0.00090244,0.00115093,-0.00009325,-0.0008
 9381,0.00031804,0.00057011,0.00014404,0.00014751,-0.00039278,0.0001918
 6,0.00061876,0.00009559,-0.00005773,-0.00003464,-0.00011706,0.00005524
 ,-0.00031916,0.04578497,0.04889546,0.29336098\\0.00000208,-0.00000015,
 0.00000379,-0.00000465,0.00000181,0.00000384,0.00000393,0.00000293,-0.
 00000842,0.00000062,-0.00000276,0.00000202,-0.00000157,-0.00000216,0.0
 0000252,0.00000091,-0.00000041,-0.00000305,0.00000014,0.00000188,0.000
 00015,0.00000129,0.00000220,-0.00000009,0.00000021,-0.00000262,0.00000
 061,-0.00000100,-0.00000376,0.00000042,-0.00000009,-0.00000069,0.00000
 015,-0.00001004,-0.00001216,0.00001029,0.00001588,0.00000737,-0.000004
 61,-0.00001504,-0.00000406,-0.00000331,0.00000165,0.00000792,0.0000021
 4,0.00000047,-0.00000109,0.00000165,0.00000022,0.00000083,0.00000271,0
 .00000036,-0.00000037,0.00000184,0.00000797,0.00000161,-0.00000159,-0.
 00000261,0.00000115,-0.00000558,-0.00000247,-0.00000057,-0.00000354,0.
 00000175,0.00000308,-0.00000192\\\@


 IN SO FAR AS QUANTUM MECHANICS IS CORRECT, CHEMICAL 
 QUESTIONS ARE PROBLEMS IN APPLIED MATHEMATICS.

                    -- EYRING, WALTER, & KIMBALL, 1944
 Job cpu time:       1 days  2 hours 11 minutes 14.8 seconds.
 File lengths (MBytes):  RWF=    697 Int=      0 D2E=      0 Chk=     40 Scr=      1
 Normal termination of Gaussian 09 at Fri Oct  1 13:05:41 2021.
