 Entering Gaussian System, Link 0=/opt/programs/g09-d.01/g09
 Input=/home/kaeser/phd_projects/hydra_challenge/b3lypd3/train/h2o.com
 Output=/scratch/kaeser/h2o/h2o.out
 Initial command:
 /opt/programs/g09-d.01/l1.exe "/scratch/kaeser/h2o/Gau-96078.inp" -scrdir="/scratch/kaeser/h2o/"
 Entering Link 1 = /opt/programs/g09-d.01/l1.exe PID=     96079.
  
 Copyright (c) 1988,1990,1992,1993,1995,1998,2003,2009,2013,
            Gaussian, Inc.  All Rights Reserved.
  
 This is part of the Gaussian(R) 09 program.  It is based on
 the Gaussian(R) 03 system (copyright 2003, Gaussian, Inc.),
 the Gaussian(R) 98 system (copyright 1998, Gaussian, Inc.),
 the Gaussian(R) 94 system (copyright 1995, Gaussian, Inc.),
 the Gaussian 92(TM) system (copyright 1992, Gaussian, Inc.),
 the Gaussian 90(TM) system (copyright 1990, Gaussian, Inc.),
 the Gaussian 88(TM) system (copyright 1988, Gaussian, Inc.),
 the Gaussian 86(TM) system (copyright 1986, Carnegie Mellon
 University), and the Gaussian 82(TM) system (copyright 1983,
 Carnegie Mellon University). Gaussian is a federally registered
 trademark of Gaussian, Inc.
  
 This software contains proprietary and confidential information,
 including trade secrets, belonging to Gaussian, Inc.
  
 This software is provided under written license and may be
 used, copied, transmitted, or stored only in accord with that
 written license.
  
 The following legend is applicable only to US Government
 contracts under FAR:
  
                    RESTRICTED RIGHTS LEGEND
  
 Use, reproduction and disclosure by the US Government is
 subject to restrictions as set forth in subparagraphs (a)
 and (c) of the Commercial Computer Software - Restricted
 Rights clause in FAR 52.227-19.
  
 Gaussian, Inc.
 340 Quinnipiac St., Bldg. 40, Wallingford CT 06492
  
  
 ---------------------------------------------------------------
 Warning -- This program may not be used in any manner that
 competes with the business of Gaussian, Inc. or will provide
 assistance to any competitor of Gaussian, Inc.  The licensee
 of this program is prohibited from giving any competitor of
 Gaussian, Inc. access to this program.  By using this program,
 the user acknowledges that Gaussian, Inc. is engaged in the
 business of creating and licensing software in the field of
 computational chemistry and represents and warrants to the
 licensee that it is not a competitor of Gaussian, Inc. and that
 it will not use this program in any manner prohibited above.
 ---------------------------------------------------------------
  

 Cite this work as:
 Gaussian 09, Revision D.01,
 M. J. Frisch, G. W. Trucks, H. B. Schlegel, G. E. Scuseria, 
 M. A. Robb, J. R. Cheeseman, G. Scalmani, V. Barone, B. Mennucci, 
 G. A. Petersson, H. Nakatsuji, M. Caricato, X. Li, H. P. Hratchian, 
 A. F. Izmaylov, J. Bloino, G. Zheng, J. L. Sonnenberg, M. Hada, 
 M. Ehara, K. Toyota, R. Fukuda, J. Hasegawa, M. Ishida, T. Nakajima, 
 Y. Honda, O. Kitao, H. Nakai, T. Vreven, J. A. Montgomery, Jr., 
 J. E. Peralta, F. Ogliaro, M. Bearpark, J. J. Heyd, E. Brothers, 
 K. N. Kudin, V. N. Staroverov, T. Keith, R. Kobayashi, J. Normand, 
 K. Raghavachari, A. Rendell, J. C. Burant, S. S. Iyengar, J. Tomasi, 
 M. Cossi, N. Rega, J. M. Millam, M. Klene, J. E. Knox, J. B. Cross, 
 V. Bakken, C. Adamo, J. Jaramillo, R. Gomperts, R. E. Stratmann, 
 O. Yazyev, A. J. Austin, R. Cammi, C. Pomelli, J. W. Ochterski, 
 R. L. Martin, K. Morokuma, V. G. Zakrzewski, G. A. Voth, 
 P. Salvador, J. J. Dannenberg, S. Dapprich, A. D. Daniels, 
 O. Farkas, J. B. Foresman, J. V. Ortiz, J. Cioslowski, 
 and D. J. Fox, Gaussian, Inc., Wallingford CT, 2013.
 
 ******************************************
 Gaussian 09:  ES64L-G09RevD.01 24-Apr-2013
                17-Nov-2021 
 ******************************************
 %chk=h2o.chk
 %mem=2GB
 %nprocshared=2
 Will use up to    2 processors via shared memory.
 ----------------------------------------------------
 # opt freq b3lyp/aug-cc-pvtz EmpiricalDispersion=GD3
 ----------------------------------------------------
 1/14=-1,18=20,19=15,26=3,38=1/1,3;
 2/9=110,12=2,17=6,18=5,40=1/2;
 3/5=16,6=1,7=10,11=2,16=1,25=1,30=1,71=1,74=-5,124=31/1,2,3;
 4//1;
 5/5=2,38=5/2;
 6/7=2,8=2,9=2,10=2,28=1/1;
 7//1,2,3,16;
 1/14=-1,18=20,19=15,26=3/3(2);
 2/9=110/2;
 99//99;
 2/9=110/2;
 3/5=16,6=1,7=10,11=2,16=1,25=1,30=1,71=1,74=-5,124=31/1,2,3;
 4/5=5,16=3,69=1/1;
 5/5=2,38=5/2;
 7//1,2,3,16;
 1/14=-1,18=20,19=15,26=3/3(-5);
 2/9=110/2;
 6/7=2,8=2,9=2,10=2,19=2,28=1/1;
 99/9=1/99;
 -------------------
 Title Card Required
 -------------------
 Symbolic Z-matrix:
 Charge =  0 Multiplicity = 1
 O                     0.        0.        0.11779 
 H                     0.        0.75545  -0.47116 
 H                     0.       -0.75545  -0.47116 
 

 GradGradGradGradGradGradGradGradGradGradGradGradGradGradGradGradGradGrad
 Berny optimization.
 Initialization pass.
                           ----------------------------
                           !    Initial Parameters    !
                           ! (Angstroms and Degrees)  !
 --------------------------                            --------------------------
 ! Name  Definition              Value          Derivative Info.                !
 --------------------------------------------------------------------------------
 ! R1    R(1,2)                  0.9579         estimate D2E/DX2                !
 ! R2    R(1,3)                  0.9579         estimate D2E/DX2                !
 ! A1    A(2,1,3)              104.1199         estimate D2E/DX2                !
 --------------------------------------------------------------------------------
 Trust Radius=3.00D-01 FncErr=1.00D-07 GrdErr=1.00D-06
 Number of steps in this run=     20 maximum allowed number of steps=    100.
 GradGradGradGradGradGradGradGradGradGradGradGradGradGradGradGradGradGrad

                          Input orientation:                          
 ---------------------------------------------------------------------
 Center     Atomic      Atomic             Coordinates (Angstroms)
 Number     Number       Type             X           Y           Z
 ---------------------------------------------------------------------
      1          8           0        0.000000    0.000000    0.117790
      2          1           0        0.000000    0.755450   -0.471160
      3          1           0        0.000000   -0.755450   -0.471160
 ---------------------------------------------------------------------
                    Distance matrix (angstroms):
                    1          2          3
     1  O    0.000000
     2  H    0.957897   0.000000
     3  H    0.957897   1.510900   0.000000
 Stoichiometry    H2O
 Framework group  C2V[C2(O),SGV(H2)]
 Deg. of freedom     2
 Full point group                 C2V     NOp   4
 Largest Abelian subgroup         C2V     NOp   4
 Largest concise Abelian subgroup C2      NOp   2
                         Standard orientation:                         
 ---------------------------------------------------------------------
 Center     Atomic      Atomic             Coordinates (Angstroms)
 Number     Number       Type             X           Y           Z
 ---------------------------------------------------------------------
      1          8           0        0.000000    0.000000    0.117790
      2          1           0        0.000000    0.755450   -0.471160
      3          1           0        0.000000   -0.755450   -0.471160
 ---------------------------------------------------------------------
 Rotational constants (GHZ):    813.9366576    439.3297428    285.3236808
 Standard basis: Aug-CC-pVTZ (5D, 7F)
 There are    42 symmetry adapted cartesian basis functions of A1  symmetry.
 There are    12 symmetry adapted cartesian basis functions of A2  symmetry.
 There are    20 symmetry adapted cartesian basis functions of B1  symmetry.
 There are    31 symmetry adapted cartesian basis functions of B2  symmetry.
 There are    35 symmetry adapted basis functions of A1  symmetry.
 There are    12 symmetry adapted basis functions of A2  symmetry.
 There are    18 symmetry adapted basis functions of B1  symmetry.
 There are    27 symmetry adapted basis functions of B2  symmetry.
    92 basis functions,   126 primitive gaussians,   105 cartesian basis functions
     5 alpha electrons        5 beta electrons
       nuclear repulsion energy         9.1892220849 Hartrees.
 NAtoms=    3 NActive=    3 NUniq=    2 SFac= 2.25D+00 NAtFMM=   60 NAOKFM=F Big=F
 Integral buffers will be    131072 words long.
 Raffenetti 2 integral format.
 Two-electron integral symmetry is turned on.
 Nuclear repulsion after empirical dispersion term =        9.1892143292 Hartrees.
 One-electron integrals computed using PRISM.
 NBasis=    92 RedAO= T EigKep=  4.70D-04  NBF=    35    12    18    27
 NBsUse=    92 1.00D-06 EigRej= -1.00D+00 NBFU=    35    12    18    27
 ExpMin= 2.53D-02 ExpMax= 1.53D+04 ExpMxC= 5.22D+02 IAcc=3 IRadAn=         5 AccDes= 0.00D+00
 Harris functional with IExCor=  402 and IRadAn=       5 diagonalized for initial guess.
 HarFok:  IExCor=  402 AccDes= 0.00D+00 IRadAn=         5 IDoV= 1 UseB2=F ITyADJ=14
 ICtDFT=  3500011 ScaDFX=  1.000000  1.000000  1.000000  1.000000
 FoFCou: FMM=F IPFlag=           0 FMFlag=      100000 FMFlg1=           0
         NFxFlg=           0 DoJE=T BraDBF=F KetDBF=T FulRan=T
         wScrn=  0.000000 ICntrl=     500 IOpCl=  0 I1Cent=   200000004 NGrid=           0
         NMat0=    1 NMatS0=      1 NMatT0=    0 NMatD0=    1 NMtDS0=    0 NMtDT0=    0
 Petite list used in FoFCou.
 Initial guess orbital symmetries:
       Occupied  (A1) (A1) (B2) (A1) (B1)
       Virtual   (A1) (B2) (A1) (B1) (A1) (B2) (B2) (A1) (A2) (A1)
                 (B1) (B2) (A1) (B2) (B2) (A1) (A1) (B1) (A2) (A1)
                 (A1) (B1) (B1) (B2) (A2) (A1) (B2) (B2) (A1) (B1)
                 (B2) (A1) (A2) (B2) (A2) (A1) (B1) (A1) (B2) (B2)
                 (A1) (B1) (A2) (A1) (A1) (B2) (B1) (A1) (B2) (B1)
                 (A1) (B2) (A2) (B2) (A1) (B1) (A2) (A1) (B2) (B1)
                 (A2) (A1) (B1) (B2) (A1) (B2) (A2) (B2) (B2) (A1)
                 (B1) (A1) (A1) (B2) (B1) (A1) (B1) (B1) (A1) (A2)
                 (B2) (A2) (A1) (A1) (B2) (B2) (A1)
 The electronic state of the initial guess is 1-A1.
 Keep R1 ints in memory in symmetry-blocked form, NReq=11548728.
 Requested convergence on RMS density matrix=1.00D-08 within 128 cycles.
 Requested convergence on MAX density matrix=1.00D-06.
 Requested convergence on             energy=1.00D-06.
 No special actions if energy rises.
 SCF Done:  E(RB3LYP) =  -76.4661446365     A.U. after    8 cycles
            NFock=  8  Conv=0.17D-08     -V/T= 2.0057

 **********************************************************************

            Population analysis using the SCF density.

 **********************************************************************

 Orbital symmetries:
       Occupied  (A1) (A1) (B2) (A1) (B1)
       Virtual   (A1) (B2) (A1) (B1) (A1) (B2) (B2) (A1) (A2) (B1)
                 (A1) (B2) (A1) (B2) (B2) (A1) (A1) (B1) (A2) (A1)
                 (B1) (A1) (B1) (B2) (A2) (B2) (A1) (A1) (B2) (B1)
                 (B2) (A1) (A2) (B2) (A2) (A1) (B1) (A1) (B2) (B2)
                 (A1) (B1) (A2) (A1) (A1) (B1) (B2) (A1) (B2) (B1)
                 (A1) (B2) (A2) (B2) (A1) (B1) (A2) (A1) (B2) (B1)
                 (A2) (A1) (B1) (B2) (A1) (B2) (A2) (B2) (B2) (A1)
                 (B1) (A1) (A1) (B2) (B1) (A1) (B1) (B1) (A1) (A2)
                 (B2) (A2) (A1) (A1) (B2) (B2) (A1)
 The electronic state is 1-A1.
 Alpha  occ. eigenvalues --  -19.14020  -1.02351  -0.54047  -0.40110  -0.32464
 Alpha virt. eigenvalues --   -0.02486   0.01944   0.07576   0.09540   0.10318
 Alpha virt. eigenvalues --    0.11549   0.15086   0.17069   0.19189   0.21925
 Alpha virt. eigenvalues --    0.22385   0.30759   0.33097   0.34861   0.47115
 Alpha virt. eigenvalues --    0.52148   0.56902   0.59103   0.59131   0.68241
 Alpha virt. eigenvalues --    0.70923   0.72838   0.76077   0.76407   0.78671
 Alpha virt. eigenvalues --    0.80733   0.81525   0.87859   0.88662   0.91195
 Alpha virt. eigenvalues --    0.98368   1.03972   1.04688   1.10299   1.32671
 Alpha virt. eigenvalues --    1.35180   1.38787   1.57104   1.62436   1.74253
 Alpha virt. eigenvalues --    1.86473   1.99255   2.04772   2.06121   2.12972
 Alpha virt. eigenvalues --    2.16604   2.17495   2.21281   2.41479   2.42972
 Alpha virt. eigenvalues --    2.48953   2.56324   2.61593   3.32449   3.41140
 Alpha virt. eigenvalues --    3.65204   3.72111   3.86831   3.95363   3.98542
 Alpha virt. eigenvalues --    4.06917   4.07592   4.08653   4.16214   4.31066
 Alpha virt. eigenvalues --    4.45912   4.81014   4.82560   4.89590   4.93618
 Alpha virt. eigenvalues --    5.12774   5.27646   5.73127   6.05168   6.24551
 Alpha virt. eigenvalues --    6.43939   6.65145   6.73831   6.80010   6.82114
 Alpha virt. eigenvalues --    6.83102   6.85467   7.03879   7.39079   7.42918
 Alpha virt. eigenvalues --    8.28807  15.02406
          Condensed to atoms (all electrons):
               1          2          3
     1  O    7.834518   0.256320   0.256320
     2  H    0.256320   0.567182   0.002920
     3  H    0.256320   0.002920   0.567182
 Mulliken charges:
               1
     1  O   -0.347157
     2  H    0.173578
     3  H    0.173578
 Sum of Mulliken charges =   0.00000
 Mulliken charges with hydrogens summed into heavy atoms:
               1
     1  O    0.000000
 Electronic spatial extent (au):  <R**2>=             20.0232
 Charge=              0.0000 electrons
 Dipole moment (field-independent basis, Debye):
    X=              0.0000    Y=              0.0000    Z=             -1.8598  Tot=              1.8598
 Quadrupole moment (field-independent basis, Debye-Ang):
   XX=             -7.7919   YY=             -4.5166   ZZ=             -6.4752
   XY=              0.0000   XZ=              0.0000   YZ=              0.0000
 Traceless Quadrupole moment (field-independent basis, Debye-Ang):
   XX=             -1.5307   YY=              1.7447   ZZ=             -0.2140
   XY=              0.0000   XZ=              0.0000   YZ=              0.0000
 Octapole moment (field-independent basis, Debye-Ang**2):
  XXX=              0.0000  YYY=              0.0000  ZZZ=             -0.9605  XYY=              0.0000
  XXY=              0.0000  XXZ=             -0.2003  XZZ=              0.0000  YZZ=              0.0000
  YYZ=             -1.2760  XYZ=              0.0000
 Hexadecapole moment (field-independent basis, Debye-Ang**3):
 XXXX=             -7.7803 YYYY=             -6.7675 ZZZZ=             -8.1369 XXXY=              0.0000
 XXXZ=              0.0000 YYYX=              0.0000 YYYZ=              0.0000 ZZZX=              0.0000
 ZZZY=              0.0000 XXYY=             -2.7451 XXZZ=             -2.7004 YYZZ=             -2.1822
 XXYZ=              0.0000 YYXZ=              0.0000 ZZXY=              0.0000
 N-N= 9.189214329217D+00 E-N=-1.990611112397D+02  KE= 7.602939465617D+01
 Symmetry A1   KE= 6.781835715215D+01
 Symmetry A2   KE=-7.775689914780D-20
 Symmetry B1   KE= 4.516783501371D+00
 Symmetry B2   KE= 3.694254002647D+00
 Calling FoFJK, ICntrl=      2127 FMM=F ISym2X=1 I1Cent= 0 IOpClX= 0 NMat=1 NMatS=1 NMatT=0.
 ***** Axes restored to original set *****
 -------------------------------------------------------------------
 Center     Atomic                   Forces (Hartrees/Bohr)
 Number     Number              X              Y              Z
 -------------------------------------------------------------------
      1        8           0.000000000    0.000000000    0.002820869
      2        1           0.000000000    0.004641794   -0.001410434
      3        1           0.000000000   -0.004641794   -0.001410434
 -------------------------------------------------------------------
 Cartesian Forces:  Max     0.004641794 RMS     0.002472706

 GradGradGradGradGradGradGradGradGradGradGradGradGradGradGradGradGradGrad
 Berny optimization.
 FormGI is forming the generalized inverse of G from B-inverse, IUseBI=4.
 Internal  Forces:  Max     0.004527959 RMS     0.004120824
 Search for a local minimum.
 Step number   1 out of a maximum of   20
 All quantities printed in internal units (Hartrees-Bohrs-Radians)
 Mixed Optimization -- RFO/linear search
 Second derivative matrix not updated -- first step.
 The second derivative matrix:
                          R1        R2        A1
           R1           0.55928
           R2           0.00000   0.55928
           A1           0.00000   0.00000   0.16000
 ITU=  0
     Eigenvalues ---    0.16000   0.55928   0.55928
 RFO step:  Lambda=-1.35363789D-04 EMin= 1.60000000D-01
 Linear search not attempted -- first point.
 Iteration  1 RMS(Cart)=  0.01478942 RMS(Int)=  0.00008763
 Iteration  2 RMS(Cart)=  0.00005757 RMS(Int)=  0.00000000
 Iteration  3 RMS(Cart)=  0.00000000 RMS(Int)=  0.00000000
 ClnCor:  largest displacement from symmetrization is 1.11D-15 for atom     3.
 Variable       Old X    -DE/DX   Delta X   Delta X   Delta X     New X
                                 (Linear)    (Quad)   (Total)
    R1        1.81016   0.00453   0.00000   0.00809   0.00809   1.81826
    R2        1.81016   0.00453   0.00000   0.00809   0.00809   1.81826
    A1        1.81724   0.00315   0.00000   0.01969   0.01969   1.83692
         Item               Value     Threshold  Converged?
 Maximum Force            0.004528     0.000450     NO 
 RMS     Force            0.004121     0.000300     NO 
 Maximum Displacement     0.017318     0.001800     NO 
 RMS     Displacement     0.014789     0.001200     NO 
 Predicted change in Energy=-6.771701D-05
 GradGradGradGradGradGradGradGradGradGradGradGradGradGradGradGradGradGrad

                          Input orientation:                          
 ---------------------------------------------------------------------
 Center     Atomic      Atomic             Coordinates (Angstroms)
 Number     Number       Type             X           Y           Z
 ---------------------------------------------------------------------
      1          8           0        0.000000    0.000000    0.114547
      2          1           0        0.000000    0.764614   -0.469538
      3          1           0        0.000000   -0.764614   -0.469538
 ---------------------------------------------------------------------
                    Distance matrix (angstroms):
                    1          2          3
     1  O    0.000000
     2  H    0.962180   0.000000
     3  H    0.962180   1.529229   0.000000
 Stoichiometry    H2O
 Framework group  C2V[C2(O),SGV(H2)]
 Deg. of freedom     2
 Full point group                 C2V     NOp   4
 Largest Abelian subgroup         C2V     NOp   4
 Largest concise Abelian subgroup C2      NOp   2
                         Standard orientation:                         
 ---------------------------------------------------------------------
 Center     Atomic      Atomic             Coordinates (Angstroms)
 Number     Number       Type             X           Y           Z
 ---------------------------------------------------------------------
      1          8           0        0.000000    0.000000    0.116817
      2          1           0        0.000000    0.764614   -0.467268
      3          1           0        0.000000   -0.764614   -0.467268
 ---------------------------------------------------------------------
 Rotational constants (GHZ):    827.5509291    428.8616154    282.4747571
 Standard basis: Aug-CC-pVTZ (5D, 7F)
 There are    42 symmetry adapted cartesian basis functions of A1  symmetry.
 There are    12 symmetry adapted cartesian basis functions of A2  symmetry.
 There are    20 symmetry adapted cartesian basis functions of B1  symmetry.
 There are    31 symmetry adapted cartesian basis functions of B2  symmetry.
 There are    35 symmetry adapted basis functions of A1  symmetry.
 There are    12 symmetry adapted basis functions of A2  symmetry.
 There are    18 symmetry adapted basis functions of B1  symmetry.
 There are    27 symmetry adapted basis functions of B2  symmetry.
    92 basis functions,   126 primitive gaussians,   105 cartesian basis functions
     5 alpha electrons        5 beta electrons
       nuclear repulsion energy         9.1456770808 Hartrees.
 NAtoms=    3 NActive=    3 NUniq=    2 SFac= 2.25D+00 NAtFMM=   60 NAOKFM=F Big=F
 Integral buffers will be    131072 words long.
 Raffenetti 2 integral format.
 Two-electron integral symmetry is turned on.
 Nuclear repulsion after empirical dispersion term =        9.1456685946 Hartrees.
 One-electron integrals computed using PRISM.
 NBasis=    92 RedAO= T EigKep=  4.78D-04  NBF=    35    12    18    27
 NBsUse=    92 1.00D-06 EigRej= -1.00D+00 NBFU=    35    12    18    27
 Initial guess from the checkpoint file:  "h2o.chk"
 B after Tr=     0.000000    0.000000    0.000000
         Rot=    1.000000    0.000000    0.000000    0.000000 Ang=   0.00 deg.
 Initial guess orbital symmetries:
       Occupied  (A1) (A1) (B2) (A1) (B1)
       Virtual   (A1) (A1) (A1) (A1) (A1) (A1) (A1) (A1) (A1) (A1)
                 (A1) (A1) (A1) (A1) (A1) (A1) (A1) (A1) (A1) (A1)
                 (A1) (A1) (A1) (A1) (A1) (A1) (A1) (A1) (A1) (A1)
                 (A1) (A1) (A2) (A2) (A2) (A2) (A2) (A2) (A2) (A2)
                 (A2) (A2) (A2) (A2) (B1) (B1) (B1) (B1) (B1) (B1)
                 (B1) (B1) (B1) (B1) (B1) (B1) (B1) (B1) (B1) (B1)
                 (B1) (B2) (B2) (B2) (B2) (B2) (B2) (B2) (B2) (B2)
                 (B2) (B2) (B2) (B2) (B2) (B2) (B2) (B2) (B2) (B2)
                 (B2) (B2) (B2) (B2) (B2) (B2) (B2)
 Keep R1 ints in memory in symmetry-blocked form, NReq=11548728.
 Requested convergence on RMS density matrix=1.00D-08 within 128 cycles.
 Requested convergence on MAX density matrix=1.00D-06.
 Requested convergence on             energy=1.00D-06.
 No special actions if energy rises.
 SCF Done:  E(RB3LYP) =  -76.4662040531     A.U. after    7 cycles
            NFock=  7  Conv=0.56D-09     -V/T= 2.0060
 Calling FoFJK, ICntrl=      2127 FMM=F ISym2X=1 I1Cent= 0 IOpClX= 0 NMat=1 NMatS=1 NMatT=0.
 ***** Axes restored to original set *****
 -------------------------------------------------------------------
 Center     Atomic                   Forces (Hartrees/Bohr)
 Number     Number              X              Y              Z
 -------------------------------------------------------------------
      1        8           0.000000000    0.000000000   -0.000060113
      2        1           0.000000000   -0.000473242    0.000030057
      3        1           0.000000000    0.000473242    0.000030057
 -------------------------------------------------------------------
 Cartesian Forces:  Max     0.000473242 RMS     0.000224434

 GradGradGradGradGradGradGradGradGradGradGradGradGradGradGradGradGradGrad
 Berny optimization.
 Using GEDIIS/GDIIS optimizer.
 FormGI is forming the generalized inverse of G from B-inverse, IUseBI=4.
 Internal  Forces:  Max     0.000478917 RMS     0.000424394
 Search for a local minimum.
 Step number   2 out of a maximum of   20
 All quantities printed in internal units (Hartrees-Bohrs-Radians)
 Mixed Optimization -- En-DIIS/RFO-DIIS
 Update second derivatives using D2CorX and points    1    2
 DE= -5.94D-05 DEPred=-6.77D-05 R= 8.77D-01
 TightC=F SS=  1.41D+00  RLast= 2.28D-02 DXNew= 5.0454D-01 6.8319D-02
 Trust test= 8.77D-01 RLast= 2.28D-02 DXMaxT set to 3.00D-01
 The second derivative matrix:
                          R1        R2        A1
           R1           0.56808
           R2           0.00880   0.56808
           A1           0.01285   0.01285   0.17390
 ITU=  1  0
 Use linear search instead of GDIIS.
     Eigenvalues ---    0.17308   0.55928   0.57770
 RFO step:  Lambda=-1.19900825D-07 EMin= 1.73080881D-01
 Quartic linear search produced a step of -0.10594.
 Iteration  1 RMS(Cart)=  0.00178806 RMS(Int)=  0.00000146
 Iteration  2 RMS(Cart)=  0.00000106 RMS(Int)=  0.00000000
 Iteration  3 RMS(Cart)=  0.00000000 RMS(Int)=  0.00000000
 ClnCor:  largest displacement from symmetrization is 1.05D-15 for atom     3.
 Variable       Old X    -DE/DX   Delta X   Delta X   Delta X     New X
                                 (Linear)    (Quad)   (Total)
    R1        1.81826  -0.00039  -0.00086   0.00023  -0.00063   1.81763
    R2        1.81826  -0.00039  -0.00086   0.00023  -0.00063   1.81763
    A1        1.83692  -0.00048  -0.00209  -0.00062  -0.00271   1.83422
         Item               Value     Threshold  Converged?
 Maximum Force            0.000479     0.000450     NO 
 RMS     Force            0.000424     0.000300     NO 
 Maximum Displacement     0.001994     0.001800     NO 
 RMS     Displacement     0.001788     0.001200     NO 
 Predicted change in Energy=-8.833507D-07
 GradGradGradGradGradGradGradGradGradGradGradGradGradGradGradGradGradGrad

                          Input orientation:                          
 ---------------------------------------------------------------------
 Center     Atomic      Atomic             Coordinates (Angstroms)
 Number     Number       Type             X           Y           Z
 ---------------------------------------------------------------------
      1          8           0        0.000000    0.000000    0.115101
      2          1           0        0.000000    0.763559   -0.469816
      3          1           0        0.000000   -0.763559   -0.469816
 ---------------------------------------------------------------------
                    Distance matrix (angstroms):
                    1          2          3
     1  O    0.000000
     2  H    0.961848   0.000000
     3  H    0.961848   1.527119   0.000000
 Stoichiometry    H2O
 Framework group  C2V[C2(O),SGV(H2)]
 Deg. of freedom     2
 Full point group                 C2V     NOp   4
 Largest Abelian subgroup         C2V     NOp   4
 Largest concise Abelian subgroup C2      NOp   2
                         Standard orientation:                         
 ---------------------------------------------------------------------
 Center     Atomic      Atomic             Coordinates (Angstroms)
 Number     Number       Type             X           Y           Z
 ---------------------------------------------------------------------
      1          8           0        0.000000    0.000000    0.116983
      2          1           0        0.000000    0.763559   -0.467934
      3          1           0        0.000000   -0.763559   -0.467934
 ---------------------------------------------------------------------
 Rotational constants (GHZ):    825.1997714    430.0475389    282.7133170
 Standard basis: Aug-CC-pVTZ (5D, 7F)
 There are    42 symmetry adapted cartesian basis functions of A1  symmetry.
 There are    12 symmetry adapted cartesian basis functions of A2  symmetry.
 There are    20 symmetry adapted cartesian basis functions of B1  symmetry.
 There are    31 symmetry adapted cartesian basis functions of B2  symmetry.
 There are    35 symmetry adapted basis functions of A1  symmetry.
 There are    12 symmetry adapted basis functions of A2  symmetry.
 There are    18 symmetry adapted basis functions of B1  symmetry.
 There are    27 symmetry adapted basis functions of B2  symmetry.
    92 basis functions,   126 primitive gaussians,   105 cartesian basis functions
     5 alpha electrons        5 beta electrons
       nuclear repulsion energy         9.1491993412 Hartrees.
 NAtoms=    3 NActive=    3 NUniq=    2 SFac= 2.25D+00 NAtFMM=   60 NAOKFM=F Big=F
 Integral buffers will be    131072 words long.
 Raffenetti 2 integral format.
 Two-electron integral symmetry is turned on.
 Nuclear repulsion after empirical dispersion term =        9.1491909410 Hartrees.
 One-electron integrals computed using PRISM.
 NBasis=    92 RedAO= T EigKep=  4.77D-04  NBF=    35    12    18    27
 NBsUse=    92 1.00D-06 EigRej= -1.00D+00 NBFU=    35    12    18    27
 Initial guess from the checkpoint file:  "h2o.chk"
 B after Tr=     0.000000    0.000000    0.000000
         Rot=    1.000000    0.000000    0.000000    0.000000 Ang=   0.00 deg.
 Initial guess orbital symmetries:
       Occupied  (A1) (A1) (B2) (A1) (B1)
       Virtual   (A1) (A1) (A1) (A1) (A1) (A1) (A1) (A1) (A1) (A1)
                 (A1) (A1) (A1) (A1) (A1) (A1) (A1) (A1) (A1) (A1)
                 (A1) (A1) (A1) (A1) (A1) (A1) (A1) (A1) (A1) (A1)
                 (A1) (A1) (A2) (A2) (A2) (A2) (A2) (A2) (A2) (A2)
                 (A2) (A2) (A2) (A2) (B1) (B1) (B1) (B1) (B1) (B1)
                 (B1) (B1) (B1) (B1) (B1) (B1) (B1) (B1) (B1) (B1)
                 (B1) (B2) (B2) (B2) (B2) (B2) (B2) (B2) (B2) (B2)
                 (B2) (B2) (B2) (B2) (B2) (B2) (B2) (B2) (B2) (B2)
                 (B2) (B2) (B2) (B2) (B2) (B2) (B2)
 Keep R1 ints in memory in symmetry-blocked form, NReq=11548728.
 Requested convergence on RMS density matrix=1.00D-08 within 128 cycles.
 Requested convergence on MAX density matrix=1.00D-06.
 Requested convergence on             energy=1.00D-06.
 No special actions if energy rises.
 SCF Done:  E(RB3LYP) =  -76.4662049576     A.U. after    5 cycles
            NFock=  5  Conv=0.68D-08     -V/T= 2.0060
 Calling FoFJK, ICntrl=      2127 FMM=F ISym2X=1 I1Cent= 0 IOpClX= 0 NMat=1 NMatS=1 NMatT=0.
 ***** Axes restored to original set *****
 -------------------------------------------------------------------
 Center     Atomic                   Forces (Hartrees/Bohr)
 Number     Number              X              Y              Z
 -------------------------------------------------------------------
      1        8           0.000000000    0.000000000    0.000034557
      2        1           0.000000000    0.000009483   -0.000017279
      3        1           0.000000000   -0.000009483   -0.000017279
 -------------------------------------------------------------------
 Cartesian Forces:  Max     0.000034557 RMS     0.000014799

 GradGradGradGradGradGradGradGradGradGradGradGradGradGradGradGradGradGrad
 Berny optimization.
 Using GEDIIS/GDIIS optimizer.
 FormGI is forming the generalized inverse of G from B-inverse, IUseBI=4.
 Internal  Forces:  Max     0.000018035 RMS     0.000016925
 Search for a local minimum.
 Step number   3 out of a maximum of   20
 All quantities printed in internal units (Hartrees-Bohrs-Radians)
 Mixed Optimization -- En-DIIS/RFO-DIIS
 Swapping is turned off.
 Update second derivatives using D2CorX and points    1    2    3
 DE= -9.05D-07 DEPred=-8.83D-07 R= 1.02D+00
 Trust test= 1.02D+00 RLast= 2.85D-03 DXMaxT set to 3.00D-01
 The second derivative matrix:
                          R1        R2        A1
           R1           0.57631
           R2           0.01703   0.57631
           A1           0.01451   0.01451   0.16492
 ITU=  0  1  0
     Eigenvalues ---    0.16394   0.55928   0.59431
 En-DIIS/RFO-DIIS IScMMF=        0 using points:     3    2
 RFO step:  Lambda= 0.00000000D+00.
 DidBck=F Rises=F RFO-DIIS coefs:    1.00925   -0.00925
 Iteration  1 RMS(Cart)=  0.00004615 RMS(Int)=  0.00000000
 Iteration  2 RMS(Cart)=  0.00000000 RMS(Int)=  0.00000000
 ClnCor:  largest displacement from symmetrization is 1.98D-15 for atom     3.
 Variable       Old X    -DE/DX   Delta X   Delta X   Delta X     New X
                                 (Linear)    (Quad)   (Total)
    R1        1.81763   0.00002  -0.00001   0.00004   0.00003   1.81766
    R2        1.81763   0.00002  -0.00001   0.00004   0.00003   1.81766
    A1        1.83422  -0.00001  -0.00003  -0.00007  -0.00009   1.83412
         Item               Value     Threshold  Converged?
 Maximum Force            0.000018     0.000450     YES
 RMS     Force            0.000017     0.000300     YES
 Maximum Displacement     0.000058     0.001800     YES
 RMS     Displacement     0.000046     0.001200     YES
 Predicted change in Energy=-1.263987D-09
 Optimization completed.
    -- Stationary point found.
                           ----------------------------
                           !   Optimized Parameters   !
                           ! (Angstroms and Degrees)  !
 --------------------------                            --------------------------
 ! Name  Definition              Value          Derivative Info.                !
 --------------------------------------------------------------------------------
 ! R1    R(1,2)                  0.9618         -DE/DX =    0.0                 !
 ! R2    R(1,3)                  0.9618         -DE/DX =    0.0                 !
 ! A1    A(2,1,3)              105.0929         -DE/DX =    0.0                 !
 --------------------------------------------------------------------------------
 GradGradGradGradGradGradGradGradGradGradGradGradGradGradGradGradGradGrad

                          Input orientation:                          
 ---------------------------------------------------------------------
 Center     Atomic      Atomic             Coordinates (Angstroms)
 Number     Number       Type             X           Y           Z
 ---------------------------------------------------------------------
      1          8           0        0.000000    0.000000    0.115101
      2          1           0        0.000000    0.763559   -0.469816
      3          1           0        0.000000   -0.763559   -0.469816
 ---------------------------------------------------------------------
                    Distance matrix (angstroms):
                    1          2          3
     1  O    0.000000
     2  H    0.961848   0.000000
     3  H    0.961848   1.527119   0.000000
 Stoichiometry    H2O
 Framework group  C2V[C2(O),SGV(H2)]
 Deg. of freedom     2
 Full point group                 C2V     NOp   4
 Largest Abelian subgroup         C2V     NOp   4
 Largest concise Abelian subgroup C2      NOp   2
                         Standard orientation:                         
 ---------------------------------------------------------------------
 Center     Atomic      Atomic             Coordinates (Angstroms)
 Number     Number       Type             X           Y           Z
 ---------------------------------------------------------------------
      1          8           0        0.000000    0.000000    0.116983
      2          1           0        0.000000    0.763559   -0.467934
      3          1           0        0.000000   -0.763559   -0.467934
 ---------------------------------------------------------------------
 Rotational constants (GHZ):    825.1997714    430.0475389    282.7133170

 **********************************************************************

            Population analysis using the SCF density.

 **********************************************************************

 Orbital symmetries:
       Occupied  (A1) (A1) (B2) (A1) (B1)
       Virtual   (A1) (B2) (A1) (B1) (A1) (B2) (B2) (A1) (A2) (B1)
                 (A1) (B2) (A1) (B2) (B2) (A1) (A1) (A2) (B1) (A1)
                 (B1) (A1) (B1) (B2) (A2) (B2) (A1) (A1) (B2) (B1)
                 (B2) (A1) (A2) (B2) (A2) (A1) (B1) (A1) (B2) (B2)
                 (A1) (B1) (A2) (A1) (A1) (B1) (B2) (A1) (B2) (B1)
                 (A1) (B2) (A2) (B2) (A1) (B1) (A2) (A1) (B2) (B1)
                 (A2) (B1) (A1) (B2) (A1) (B2) (A2) (B2) (B2) (A1)
                 (B1) (A1) (A1) (B2) (B1) (A1) (B1) (B1) (A1) (A2)
                 (B2) (A2) (A1) (A1) (B2) (B2) (A1)
 The electronic state is 1-A1.
 Alpha  occ. eigenvalues --  -19.14045  -1.02108  -0.54069  -0.39895  -0.32412
 Alpha virt. eigenvalues --   -0.02506   0.01919   0.07569   0.09539   0.10263
 Alpha virt. eigenvalues --    0.11483   0.15089   0.17009   0.19138   0.21995
 Alpha virt. eigenvalues --    0.22421   0.30705   0.32998   0.34771   0.47153
 Alpha virt. eigenvalues --    0.51975   0.56974   0.59061   0.59082   0.68020
 Alpha virt. eigenvalues --    0.70912   0.72882   0.76147   0.76295   0.78575
 Alpha virt. eigenvalues --    0.80620   0.81696   0.87788   0.88583   0.91190
 Alpha virt. eigenvalues --    0.98309   1.03639   1.04463   1.10407   1.32603
 Alpha virt. eigenvalues --    1.35881   1.38824   1.57180   1.61345   1.74021
 Alpha virt. eigenvalues --    1.85942   1.99079   2.04695   2.06121   2.12721
 Alpha virt. eigenvalues --    2.16380   2.17398   2.21221   2.41935   2.43208
 Alpha virt. eigenvalues --    2.48280   2.57100   2.61324   3.31473   3.41289
 Alpha virt. eigenvalues --    3.64781   3.71445   3.87743   3.94296   3.99530
 Alpha virt. eigenvalues --    4.06793   4.08168   4.08398   4.15349   4.30057
 Alpha virt. eigenvalues --    4.44323   4.80244   4.80934   4.89559   4.92183
 Alpha virt. eigenvalues --    5.11162   5.28133   5.71703   6.05676   6.24394
 Alpha virt. eigenvalues --    6.41963   6.64966   6.73308   6.79053   6.82324
 Alpha virt. eigenvalues --    6.83761   6.84126   7.02978   7.39593   7.40835
 Alpha virt. eigenvalues --    8.26010  14.90878
          Condensed to atoms (all electrons):
               1          2          3
     1  O    7.844462   0.255123   0.255123
     2  H    0.255123   0.562668   0.004855
     3  H    0.255123   0.004855   0.562668
 Mulliken charges:
               1
     1  O   -0.354708
     2  H    0.177354
     3  H    0.177354
 Sum of Mulliken charges =   0.00000
 Mulliken charges with hydrogens summed into heavy atoms:
               1
     1  O    0.000000
 Electronic spatial extent (au):  <R**2>=             20.0804
 Charge=              0.0000 electrons
 Dipole moment (field-independent basis, Debye):
    X=              0.0000    Y=              0.0000    Z=             -1.8471  Tot=              1.8471
 Quadrupole moment (field-independent basis, Debye-Ang):
   XX=             -7.8031   YY=             -4.4684   ZZ=             -6.5073
   XY=              0.0000   XZ=              0.0000   YZ=              0.0000
 Traceless Quadrupole moment (field-independent basis, Debye-Ang):
   XX=             -1.5435   YY=              1.7912   ZZ=             -0.2477
   XY=              0.0000   XZ=              0.0000   YZ=              0.0000
 Octapole moment (field-independent basis, Debye-Ang**2):
  XXX=              0.0000  YYY=              0.0000  ZZZ=             -0.9378  XYY=              0.0000
  XXY=              0.0000  XXZ=             -0.1961  XZZ=              0.0000  YZZ=              0.0000
  YYZ=             -1.2887  XYZ=              0.0000
 Hexadecapole moment (field-independent basis, Debye-Ang**3):
 XXXX=             -7.8027 YYYY=             -6.7743 ZZZZ=             -8.1709 XXXY=              0.0000
 XXXZ=              0.0000 YYYX=              0.0000 YYYZ=              0.0000 ZZZX=              0.0000
 ZZZY=              0.0000 XXYY=             -2.7638 XXZZ=             -2.7083 YYZZ=             -2.1975
 XXYZ=              0.0000 YYXZ=              0.0000 ZZXY=              0.0000
 N-N= 9.149190940955D+00 E-N=-1.989757275802D+02  KE= 7.601249874776D+01
 Symmetry A1   KE= 6.781553435279D+01
 Symmetry A2   KE= 3.435879020075D-19
 Symmetry B1   KE= 4.516276396247D+00
 Symmetry B2   KE= 3.680687998727D+00
 1\1\GINC-NODE01\FOpt\RB3LYP\Aug-CC-pVTZ\H2O1\KAESER\17-Nov-2021\0\\# o
 pt freq b3lyp/aug-cc-pvtz EmpiricalDispersion=GD3\\Title Card Required
 \\0,1\O,0.,0.,0.1151012767\H,0.,0.7635593425,-0.4698156384\H,0.,-0.763
 5593425,-0.4698156384\\Version=ES64L-G09RevD.01\State=1-A1\HF=-76.4662
 05\RMSD=6.847e-09\RMSF=1.480e-05\Dipole=0.,0.,-0.7266999\Quadrupole=-1
 .1475315,1.3316803,-0.1841488,0.,0.,0.\PG=C02V [C2(O1),SGV(H2)]\\@


 The theorems and results in mathematical physics are
 not theorems and results about Nature, but about our
 description of it.
                   --Gerard 't Hooft
 Job cpu time:       0 days  0 hours  0 minutes 14.3 seconds.
 File lengths (MBytes):  RWF=      6 Int=      0 D2E=      0 Chk=      2 Scr=      1
 Normal termination of Gaussian 09 at Wed Nov 17 12:14:52 2021.
 Link1:  Proceeding to internal job step number  2.
 ----------------------------------------------------------------------
 #N Geom=AllCheck Guess=TCheck SCRF=Check GenChk RB3LYP/Aug-CC-pVTZ Fre
 q
 ----------------------------------------------------------------------
 1/10=4,29=7,30=1,38=1,40=1/1,3;
 2/12=2,40=1/2;
 3/5=16,6=1,7=10,11=2,14=-4,16=1,25=1,30=1,70=2,71=2,74=-5,116=1,124=31,140=1/1,2,3;
 4/5=101/1;
 5/5=2,98=1/2;
 8/6=4,10=90,11=11/1;
 11/6=1,8=1,9=11,15=111,16=1/1,2,10;
 10/6=1/2;
 6/7=2,8=2,9=2,10=2,18=1,28=1/1;
 7/8=1,10=1,25=1/1,2,3,16;
 1/10=4,30=1/3;
 99//99;
 Structure from the checkpoint file:  "h2o.chk"
 -------------------
 Title Card Required
 -------------------
 Charge =  0 Multiplicity = 1
 Redundant internal coordinates found in file.
 O,0,0.,0.,0.1151012767
 H,0,0.,0.7635593425,-0.4698156384
 H,0,0.,-0.7635593425,-0.4698156384
 Recover connectivity data from disk.

 GradGradGradGradGradGradGradGradGradGradGradGradGradGradGradGradGradGrad
 Berny optimization.
 Initialization pass.
                           ----------------------------
                           !    Initial Parameters    !
                           ! (Angstroms and Degrees)  !
 --------------------------                            --------------------------
 ! Name  Definition              Value          Derivative Info.                !
 --------------------------------------------------------------------------------
 ! R1    R(1,2)                  0.9618         calculate D2E/DX2 analytically  !
 ! R2    R(1,3)                  0.9618         calculate D2E/DX2 analytically  !
 ! A1    A(2,1,3)              105.0929         calculate D2E/DX2 analytically  !
 --------------------------------------------------------------------------------
 Trust Radius=3.00D-01 FncErr=1.00D-07 GrdErr=1.00D-07
 Number of steps in this run=      2 maximum allowed number of steps=      2.
 GradGradGradGradGradGradGradGradGradGradGradGradGradGradGradGradGradGrad

                          Input orientation:                          
 ---------------------------------------------------------------------
 Center     Atomic      Atomic             Coordinates (Angstroms)
 Number     Number       Type             X           Y           Z
 ---------------------------------------------------------------------
      1          8           0        0.000000    0.000000    0.115101
      2          1           0        0.000000    0.763559   -0.469816
      3          1           0        0.000000   -0.763559   -0.469816
 ---------------------------------------------------------------------
                    Distance matrix (angstroms):
                    1          2          3
     1  O    0.000000
     2  H    0.961848   0.000000
     3  H    0.961848   1.527119   0.000000
 Stoichiometry    H2O
 Framework group  C2V[C2(O),SGV(H2)]
 Deg. of freedom     2
 Full point group                 C2V     NOp   4
 Largest Abelian subgroup         C2V     NOp   4
 Largest concise Abelian subgroup C2      NOp   2
                         Standard orientation:                         
 ---------------------------------------------------------------------
 Center     Atomic      Atomic             Coordinates (Angstroms)
 Number     Number       Type             X           Y           Z
 ---------------------------------------------------------------------
      1          8           0        0.000000    0.000000    0.116983
      2          1           0        0.000000    0.763559   -0.467934
      3          1           0        0.000000   -0.763559   -0.467934
 ---------------------------------------------------------------------
 Rotational constants (GHZ):    825.1997714    430.0475389    282.7133170
 Standard basis: Aug-CC-pVTZ (5D, 7F)
 There are    42 symmetry adapted cartesian basis functions of A1  symmetry.
 There are    12 symmetry adapted cartesian basis functions of A2  symmetry.
 There are    20 symmetry adapted cartesian basis functions of B1  symmetry.
 There are    31 symmetry adapted cartesian basis functions of B2  symmetry.
 There are    35 symmetry adapted basis functions of A1  symmetry.
 There are    12 symmetry adapted basis functions of A2  symmetry.
 There are    18 symmetry adapted basis functions of B1  symmetry.
 There are    27 symmetry adapted basis functions of B2  symmetry.
    92 basis functions,   126 primitive gaussians,   105 cartesian basis functions
     5 alpha electrons        5 beta electrons
       nuclear repulsion energy         9.1491993412 Hartrees.
 NAtoms=    3 NActive=    3 NUniq=    2 SFac= 2.25D+00 NAtFMM=   60 NAOKFM=F Big=F
 Integral buffers will be    131072 words long.
 Raffenetti 2 integral format.
 Two-electron integral symmetry is turned on.
 Nuclear repulsion after empirical dispersion term =        9.1491909410 Hartrees.
 One-electron integrals computed using PRISM.
 NBasis=    92 RedAO= T EigKep=  4.77D-04  NBF=    35    12    18    27
 NBsUse=    92 1.00D-06 EigRej= -1.00D+00 NBFU=    35    12    18    27
 Initial guess from the checkpoint file:  "h2o.chk"
 B after Tr=     0.000000    0.000000    0.000000
         Rot=    1.000000    0.000000    0.000000    0.000000 Ang=   0.00 deg.
 Initial guess orbital symmetries:
       Occupied  (A1) (A1) (B2) (A1) (B1)
       Virtual   (A1) (B2) (A1) (B1) (A1) (B2) (B2) (A1) (A2) (B1)
                 (A1) (B2) (A1) (B2) (B2) (A1) (A1) (A2) (B1) (A1)
                 (B1) (A1) (B1) (B2) (A2) (B2) (A1) (A1) (B2) (B1)
                 (B2) (A1) (A2) (B2) (A2) (A1) (B1) (A1) (B2) (B2)
                 (A1) (B1) (A2) (A1) (A1) (B1) (B2) (A1) (B2) (B1)
                 (A1) (B2) (A2) (B2) (A1) (B1) (A2) (A1) (B2) (B1)
                 (A2) (B1) (A1) (B2) (A1) (B2) (A2) (B2) (B2) (A1)
                 (B1) (A1) (A1) (B2) (B1) (A1) (B1) (B1) (A1) (A2)
                 (B2) (A2) (A1) (A1) (B2) (B2) (A1)
 Keep R1 ints in memory in symmetry-blocked form, NReq=11548728.
 Requested convergence on RMS density matrix=1.00D-08 within 128 cycles.
 Requested convergence on MAX density matrix=1.00D-06.
 Requested convergence on             energy=1.00D-06.
 No special actions if energy rises.
 SCF Done:  E(RB3LYP) =  -76.4662049576     A.U. after    1 cycles
            NFock=  1  Conv=0.10D-08     -V/T= 2.0060
 DoSCS=F DFT=T ScalE2(SS,OS)=  1.000000  1.000000
 Range of M.O.s used for correlation:     1    92
 NBasis=    92 NAE=     5 NBE=     5 NFC=     0 NFV=     0
 NROrb=     92 NOA=     5 NOB=     5 NVA=    87 NVB=    87

 **** Warning!!: The largest alpha MO coefficient is  0.15745346D+02

 Symmetrizing basis deriv contribution to polar:
 IMax=3 JMax=2 DiffMx= 0.00D+00
 G2DrvN: will do     4 centers at a time, making    1 passes.
 Calling FoFCou, ICntrl=  3107 FMM=F I1Cent=   0 AccDes= 0.00D+00.
 End of G2Drv F.D. properties file   721 does not exist.
 End of G2Drv F.D. properties file   722 does not exist.
 End of G2Drv F.D. properties file   788 does not exist.
          IDoAtm=111
          Differentiating once with respect to electric field.
                with respect to dipole field.
          Differentiating once with respect to nuclear coordinates.
 Keep R1 ints in memory in symmetry-blocked form, NReq=11497419.
          There are     9 degrees of freedom in the 1st order CPHF.  IDoFFX=4 NUNeed=     9.
      9 vectors produced by pass  0 Test12= 4.83D-15 1.11D-08 XBig12= 5.04D+00 1.28D+00.
 AX will form     9 AO Fock derivatives at one time.
      9 vectors produced by pass  1 Test12= 4.83D-15 1.11D-08 XBig12= 9.19D-01 3.51D-01.
      9 vectors produced by pass  2 Test12= 4.83D-15 1.11D-08 XBig12= 1.14D-02 4.20D-02.
      9 vectors produced by pass  3 Test12= 4.83D-15 1.11D-08 XBig12= 4.03D-05 1.95D-03.
      9 vectors produced by pass  4 Test12= 4.83D-15 1.11D-08 XBig12= 1.32D-07 1.11D-04.
      5 vectors produced by pass  5 Test12= 4.83D-15 1.11D-08 XBig12= 1.59D-10 4.55D-06.
      2 vectors produced by pass  6 Test12= 4.83D-15 1.11D-08 XBig12= 1.08D-13 8.85D-08.
 InvSVY:  IOpt=1 It=  1 EMax= 4.44D-16
 Solved reduced A of dimension    52 with     9 vectors.
 Isotropic polarizability for W=    0.000000        9.81 Bohr**3.
 End of Minotr F.D. properties file   721 does not exist.
 End of Minotr F.D. properties file   722 does not exist.
 End of Minotr F.D. properties file   788 does not exist.

 **********************************************************************

            Population analysis using the SCF density.

 **********************************************************************

 Orbital symmetries:
       Occupied  (A1) (A1) (B2) (A1) (B1)
       Virtual   (A1) (B2) (A1) (B1) (A1) (B2) (B2) (A1) (A2) (B1)
                 (A1) (B2) (A1) (B2) (B2) (A1) (A1) (A2) (B1) (A1)
                 (B1) (A1) (B1) (B2) (A2) (B2) (A1) (A1) (B2) (B1)
                 (B2) (A1) (A2) (B2) (A2) (A1) (B1) (A1) (B2) (B2)
                 (A1) (B1) (A2) (A1) (A1) (B1) (B2) (A1) (B2) (B1)
                 (A1) (B2) (A2) (B2) (A1) (B1) (A2) (A1) (B2) (B1)
                 (A2) (B1) (A1) (B2) (A1) (B2) (A2) (B2) (B2) (A1)
                 (B1) (A1) (A1) (B2) (B1) (A1) (B1) (B1) (A1) (A2)
                 (B2) (A2) (A1) (A1) (B2) (B2) (A1)
 The electronic state is 1-A1.
 Alpha  occ. eigenvalues --  -19.14045  -1.02108  -0.54069  -0.39895  -0.32412
 Alpha virt. eigenvalues --   -0.02506   0.01919   0.07569   0.09539   0.10263
 Alpha virt. eigenvalues --    0.11483   0.15089   0.17009   0.19138   0.21995
 Alpha virt. eigenvalues --    0.22421   0.30705   0.32998   0.34771   0.47153
 Alpha virt. eigenvalues --    0.51975   0.56974   0.59061   0.59082   0.68020
 Alpha virt. eigenvalues --    0.70912   0.72882   0.76147   0.76295   0.78575
 Alpha virt. eigenvalues --    0.80620   0.81696   0.87788   0.88583   0.91190
 Alpha virt. eigenvalues --    0.98309   1.03639   1.04463   1.10407   1.32603
 Alpha virt. eigenvalues --    1.35881   1.38824   1.57180   1.61345   1.74021
 Alpha virt. eigenvalues --    1.85942   1.99079   2.04695   2.06121   2.12721
 Alpha virt. eigenvalues --    2.16380   2.17398   2.21221   2.41935   2.43208
 Alpha virt. eigenvalues --    2.48280   2.57100   2.61324   3.31473   3.41289
 Alpha virt. eigenvalues --    3.64781   3.71445   3.87743   3.94296   3.99530
 Alpha virt. eigenvalues --    4.06793   4.08168   4.08398   4.15349   4.30057
 Alpha virt. eigenvalues --    4.44323   4.80244   4.80934   4.89559   4.92183
 Alpha virt. eigenvalues --    5.11162   5.28133   5.71703   6.05676   6.24394
 Alpha virt. eigenvalues --    6.41963   6.64966   6.73308   6.79053   6.82324
 Alpha virt. eigenvalues --    6.83761   6.84126   7.02978   7.39593   7.40835
 Alpha virt. eigenvalues --    8.26010  14.90878
          Condensed to atoms (all electrons):
               1          2          3
     1  O    7.844462   0.255123   0.255123
     2  H    0.255123   0.562668   0.004855
     3  H    0.255123   0.004855   0.562668
 Mulliken charges:
               1
     1  O   -0.354708
     2  H    0.177354
     3  H    0.177354
 Sum of Mulliken charges =   0.00000
 Mulliken charges with hydrogens summed into heavy atoms:
               1
     1  O    0.000000
 APT charges:
               1
     1  O   -0.505423
     2  H    0.252712
     3  H    0.252712
 Sum of APT charges =   0.00000
 APT charges with hydrogens summed into heavy atoms:
               1
     1  O    0.000000
 Electronic spatial extent (au):  <R**2>=             20.0804
 Charge=              0.0000 electrons
 Dipole moment (field-independent basis, Debye):
    X=              0.0000    Y=              0.0000    Z=             -1.8471  Tot=              1.8471
 Quadrupole moment (field-independent basis, Debye-Ang):
   XX=             -7.8031   YY=             -4.4684   ZZ=             -6.5073
   XY=              0.0000   XZ=              0.0000   YZ=              0.0000
 Traceless Quadrupole moment (field-independent basis, Debye-Ang):
   XX=             -1.5435   YY=              1.7912   ZZ=             -0.2477
   XY=              0.0000   XZ=              0.0000   YZ=              0.0000
 Octapole moment (field-independent basis, Debye-Ang**2):
  XXX=              0.0000  YYY=              0.0000  ZZZ=             -0.9378  XYY=              0.0000
  XXY=              0.0000  XXZ=             -0.1961  XZZ=              0.0000  YZZ=              0.0000
  YYZ=             -1.2887  XYZ=              0.0000
 Hexadecapole moment (field-independent basis, Debye-Ang**3):
 XXXX=             -7.8027 YYYY=             -6.7743 ZZZZ=             -8.1709 XXXY=              0.0000
 XXXZ=              0.0000 YYYX=              0.0000 YYYZ=              0.0000 ZZZX=              0.0000
 ZZZY=              0.0000 XXYY=             -2.7638 XXZZ=             -2.7083 YYZZ=             -2.1975
 XXYZ=              0.0000 YYXZ=              0.0000 ZZXY=              0.0000
 N-N= 9.149190940955D+00 E-N=-1.989757261590D+02  KE= 7.601249806847D+01
 Symmetry A1   KE= 6.781553421393D+01
 Symmetry A2   KE=-4.385462899674D-20
 Symmetry B1   KE= 4.516276057523D+00
 Symmetry B2   KE= 3.680687797019D+00
  Exact polarizability:   9.409   0.000  10.269   0.000   0.000   9.743
 Approx polarizability:  10.257   0.000  12.894   0.000   0.000  12.048
 Calling FoFJK, ICntrl=    100127 FMM=F ISym2X=1 I1Cent= 0 IOpClX= 0 NMat=1 NMatS=1 NMatT=0.
 Full mass-weighted force constant matrix:
 Low frequencies ---  -67.8005  -53.0581  -37.2325   -0.0021   -0.0020   -0.0019
 Low frequencies --- 1626.5906 3795.9961 3898.9973
 Diagonal vibrational polarizability:
        0.0000000       0.1116221       0.7794472
 Harmonic frequencies (cm**-1), IR intensities (KM/Mole), Raman scattering
 activities (A**4/AMU), depolarization ratios for plane and unpolarized
 incident light, reduced masses (AMU), force constants (mDyne/A),
 and normal coordinates:
                      1                      2                      3
                     A1                     A1                     B2
 Frequencies --   1626.5906              3795.9961              3898.9973
 Red. masses --      1.0834                 1.0445                 1.0824
 Frc consts  --      1.6889                 8.8676                 9.6953
 IR Inten    --     75.7787                 4.6473                63.0555
  Atom  AN      X      Y      Z        X      Y      Z        X      Y      Z
     1   8     0.00   0.00   0.07     0.00   0.00   0.05     0.00   0.07   0.00
     2   1     0.00  -0.42  -0.56     0.00   0.59  -0.39     0.00  -0.56   0.43
     3   1     0.00   0.42  -0.56     0.00  -0.59  -0.39     0.00  -0.56  -0.43

 -------------------
 - Thermochemistry -
 -------------------
 Temperature   298.150 Kelvin.  Pressure   1.00000 Atm.
 Atom     1 has atomic number  8 and mass  15.99491
 Atom     2 has atomic number  1 and mass   1.00783
 Atom     3 has atomic number  1 and mass   1.00783
 Molecular mass:    18.01056 amu.
 Principal axes and moments of inertia in atomic units:
                           1         2         3
     Eigenvalues --     2.18704   4.19661   6.38364
           X            0.00000   0.00000   1.00000
           Y            1.00000   0.00000   0.00000
           Z            0.00000   1.00000   0.00000
 This molecule is an asymmetric top.
 Rotational symmetry number  2.
 Rotational temperatures (Kelvin)     39.60330    20.63900    13.56808
 Rotational constants (GHZ):         825.19977   430.04754   282.71332
 Zero-point vibrational energy      55755.5 (Joules/Mol)
                                   13.32587 (Kcal/Mol)
 Vibrational temperatures:   2340.30  5461.58  5609.78
          (Kelvin)
 
 Zero-point correction=                           0.021236 (Hartree/Particle)
 Thermal correction to Energy=                    0.024072
 Thermal correction to Enthalpy=                  0.025016
 Thermal correction to Gibbs Free Energy=         0.003594
 Sum of electronic and zero-point Energies=            -76.444969
 Sum of electronic and thermal Energies=               -76.442133
 Sum of electronic and thermal Enthalpies=             -76.441189
 Sum of electronic and thermal Free Energies=          -76.462611
 
                     E (Thermal)             CV                S
                      KCal/Mol        Cal/Mol-Kelvin    Cal/Mol-Kelvin
 Total                   15.105              6.009             45.085
 Electronic               0.000              0.000              0.000
 Translational            0.889              2.981             34.608
 Rotational               0.889              2.981             10.470
 Vibrational             13.328              0.048              0.007
                       Q            Log10(Q)             Ln(Q)
 Total Bot       0.222189D-01         -1.653278         -3.806813
 Total V=0       0.130210D+09          8.114644         18.684657
 Vib (Bot)       0.170706D-09         -9.767752        -22.491080
 Vib (V=0)       0.100039D+01          0.000169          0.000390
 Electronic      0.100000D+01          0.000000          0.000000
 Translational   0.300432D+07          6.477746         14.915562
 Rotational      0.433239D+02          1.636728          3.768705
 ***** Axes restored to original set *****
 -------------------------------------------------------------------
 Center     Atomic                   Forces (Hartrees/Bohr)
 Number     Number              X              Y              Z
 -------------------------------------------------------------------
      1        8           0.000000000    0.000000000    0.000034525
      2        1           0.000000000    0.000009451   -0.000017263
      3        1           0.000000000   -0.000009451   -0.000017263
 -------------------------------------------------------------------
 Cartesian Forces:  Max     0.000034525 RMS     0.000014782
 FormGI is forming the generalized inverse of G from B-inverse, IUseBI=4.

 GradGradGradGradGradGradGradGradGradGradGradGradGradGradGradGradGradGrad
 Berny optimization.
 Internal  Forces:  Max     0.000018000 RMS     0.000016903
 Search for a local minimum.
 Step number   1 out of a maximum of    2
 All quantities printed in internal units (Hartrees-Bohrs-Radians)
 Second derivative matrix not updated -- analytic derivatives used.
 The second derivative matrix:
                          R1        R2        A1
           R1           0.53196
           R2          -0.00516   0.53196
           A1           0.03018   0.03018   0.15791
 ITU=  0
     Eigenvalues ---    0.15304   0.53168   0.53711
 Angle between quadratic step and forces=  32.35 degrees.
 Linear search not attempted -- first point.
 Iteration  1 RMS(Cart)=  0.00005281 RMS(Int)=  0.00000000
 Iteration  2 RMS(Cart)=  0.00000000 RMS(Int)=  0.00000000
 ClnCor:  largest displacement from symmetrization is 1.98D-15 for atom     3.
 Variable       Old X    -DE/DX   Delta X   Delta X   Delta X     New X
                                 (Linear)    (Quad)   (Total)
    R1        1.81763   0.00002   0.00000   0.00004   0.00004   1.81767
    R2        1.81763   0.00002   0.00000   0.00004   0.00004   1.81767
    A1        1.83422  -0.00001   0.00000  -0.00011  -0.00011   1.83411
         Item               Value     Threshold  Converged?
 Maximum Force            0.000018     0.000450     YES
 RMS     Force            0.000017     0.000300     YES
 Maximum Displacement     0.000068     0.001800     YES
 RMS     Displacement     0.000053     0.001200     YES
 Predicted change in Energy=-1.499057D-09
 Optimization completed.
    -- Stationary point found.
                           ----------------------------
                           !   Optimized Parameters   !
                           ! (Angstroms and Degrees)  !
 --------------------------                            --------------------------
 ! Name  Definition              Value          Derivative Info.                !
 --------------------------------------------------------------------------------
 ! R1    R(1,2)                  0.9618         -DE/DX =    0.0                 !
 ! R2    R(1,3)                  0.9618         -DE/DX =    0.0                 !
 ! A1    A(2,1,3)              105.0929         -DE/DX =    0.0                 !
 --------------------------------------------------------------------------------
 GradGradGradGradGradGradGradGradGradGradGradGradGradGradGradGradGradGrad

 1\1\GINC-NODE01\Freq\RB3LYP\Aug-CC-pVTZ\H2O1\KAESER\17-Nov-2021\0\\#N 
 Geom=AllCheck Guess=TCheck SCRF=Check GenChk RB3LYP/Aug-CC-pVTZ Freq\\
 Title Card Required\\0,1\O,0.,0.,0.1151012767\H,0.,0.7635593425,-0.469
 8156384\H,0.,-0.7635593425,-0.4698156384\\Version=ES64L-G09RevD.01\Sta
 te=1-A1\HF=-76.466205\RMSD=1.046e-09\RMSF=1.478e-05\ZeroPoint=0.021236
 1\Thermal=0.0240716\Dipole=0.,0.,-0.7267\DipoleDeriv=-0.6574571,0.,0.,
 0.,-0.5011171,0.,0.,0.,-0.3576954,0.3287286,0.,0.,0.,0.2505585,0.07452
 9,0.,0.0598618,0.1788477,0.3287286,0.,0.,0.,0.2505585,-0.074529,0.,-0.
 0598618,0.1788477\Polar=9.4087533,0.,10.269019,0.,0.,9.7428956\PG=C02V
  [C2(O1),SGV(H2)]\NImag=0\\-0.00019071,0.,0.67690110,0.,0.,0.44598440,
 0.00009535,0.,0.,-0.00013534,0.,-0.33845055,0.19952549,0.,0.36892173,0
 .,0.25934701,-0.22299220,0.,-0.22943625,0.21082176,0.00009535,0.,0.,0.
 00003999,0.,0.,-0.00013534,0.,-0.33845055,-0.19952549,0.,-0.03047118,-
 0.02991076,0.,0.36892173,0.,-0.25934701,-0.22299220,0.,0.02991076,0.01
 217044,0.,0.22943625,0.21082176\\0.,0.,-0.00003453,0.,-0.00000945,0.00
 001726,0.,0.00000945,0.00001726\\\@


 THE REASON MAN'S BEST FRIEND IS A DOG IS BECAUSE
 HE WAGS HIS TAIL INSTEAD OF HIS TONGUE.
 Job cpu time:       0 days  0 hours  0 minutes 17.9 seconds.
 File lengths (MBytes):  RWF=      6 Int=      0 D2E=      0 Chk=      2 Scr=      1
 Normal termination of Gaussian 09 at Wed Nov 17 12:15:01 2021.
